
     Program PWSCF v.6.4.1 starts on 12May2023 at 20:20:32 

     This program is part of the open-source Quantum ESPRESSO suite
     for quantum simulation of materials; please cite
         "P. Giannozzi et al., J. Phys.:Condens. Matter 21 395502 (2009);
         "P. Giannozzi et al., J. Phys.:Condens. Matter 29 465901 (2017);
          URL http://www.quantum-espresso.org", 
     in publications or presentations arising from this work. More details at
     http://www.quantum-espresso.org/quote

     Parallel version (MPI), running on     1 processors

     MPI processes distributed on     1 nodes
     Waiting for input...
     Reading input from standard input

     Current dimensions of program PWSCF are:
     Max number of different atomic species (ntypx) = 10
     Max number of k-points (npk) =  40000
     Max angular momentum in pseudopotentials (lmaxx) =  3
               file C.pbe-n-kjpaw_psl.1.0.0.UPF: wavefunction(s)  2S 2P renormalized

     Subspace diagonalization in iterative solution of the eigenvalue problem:
     a serial algorithm will be used


     G-vector sticks info
     --------------------
     sticks:   dense  smooth     PW     G-vecs:    dense   smooth      PW
     Sum         139     139     55                 1037     1037     259



     bravais-lattice index     =            2
     lattice parameter (alat)  =       3.3000  a.u.
     unit-cell volume          =       8.9842 (a.u.)^3
     number of atoms/cell      =            2
     number of atomic types    =            1
     number of electrons       =         8.00
     number of Kohn-Sham states=            4
     kinetic-energy cutoff     =      90.0000  Ry
     charge density cutoff     =     360.0000  Ry
     convergence threshold     =      1.0E-08
     mixing beta               =       0.2000
     number of iterations used =            8  plain     mixing
     Exchange-correlation      = SLA PW PBX PBC ( 1  4  3  4 0 0)

     celldm(1)=   3.300000  celldm(2)=   0.000000  celldm(3)=   0.000000
     celldm(4)=   0.000000  celldm(5)=   0.000000  celldm(6)=   0.000000

     crystal axes: (cart. coord. in units of alat)
               a(1) = (  -0.500000   0.000000   0.500000 )  
               a(2) = (   0.000000   0.500000   0.500000 )  
               a(3) = (  -0.500000   0.500000   0.000000 )  

     reciprocal axes: (cart. coord. in units 2 pi/alat)
               b(1) = ( -1.000000 -1.000000  1.000000 )  
               b(2) = (  1.000000  1.000000  1.000000 )  
               b(3) = ( -1.000000  1.000000 -1.000000 )  


     PseudoPot. # 1 for C  read from file:
     ../../pseudo/C.pbe-n-kjpaw_psl.1.0.0.UPF
     MD5 check sum: 5f16ad9a65e90284d1d834d4ab3b0f7d
     Pseudo is Projector augmented-wave + core cor, Zval =  4.0
     Generated using "atomic" code by A. Dal Corso v.6.3
     Shape of augmentation charge: PSQ
     Using radial grid of 1073 points,  4 beta functions with: 
                l(1) =   0
                l(2) =   0
                l(3) =   1
                l(4) =   1
     Q(r) pseudized with 0 coefficients 


     atomic species   valence    mass     pseudopotential
        C              4.00    12.00000     C ( 1.00)

     48 Sym. Ops., with inversion, found (36 have fractional translation)



   Cartesian axes

     site n.     atom                  positions (alat units)
         1           C   tau(   1) = (  -0.1250000   0.1250000   0.1250000  )
         2           C   tau(   2) = (  -0.8750000   0.8750000   0.8750000  )

     number of k points=     8
                       cart. coord. in units 2pi/alat
        k(    1) = (   0.0000000   0.0000000   0.0000000), wk =   0.0312500
        k(    2) = (  -0.2500000   0.2500000  -0.2500000), wk =   0.2500000
        k(    3) = (   0.5000000  -0.5000000   0.5000000), wk =   0.1250000
        k(    4) = (   0.0000000   0.5000000   0.0000000), wk =   0.1875000
        k(    5) = (   0.7500000  -0.2500000   0.7500000), wk =   0.7500000
        k(    6) = (   0.5000000   0.0000000   0.5000000), wk =   0.3750000
        k(    7) = (   0.0000000  -1.0000000   0.0000000), wk =   0.0937500
        k(    8) = (  -0.5000000  -1.0000000   0.0000000), wk =   0.1875000

     Dense  grid:     1037 G-vectors     FFT dimensions: (  16,  16,  16)

     Estimated max dynamical RAM per process >       1.76 MB

     Initial potential from superposition of free atoms

     starting charge    7.99992, renormalised to    8.00000
     Starting wfcs are    8 randomized atomic wfcs
     Checking if some PAW data can be deallocated... 

     total cpu time spent up to now is        0.3 secs

     Self-consistent Calculation

     iteration #  1     ecut=    90.00 Ry     beta= 0.20
     Davidson diagonalization with overlap
     ethr =  1.00E-04,  avg # of iterations =  3.1

     total cpu time spent up to now is        0.4 secs

     total energy              =     -21.80724514 Ry
     Harris-Foulkes estimate   =     -22.12059435 Ry
     estimated scf accuracy    <       0.68278608 Ry

     iteration #  2     ecut=    90.00 Ry     beta= 0.20
     Davidson diagonalization with overlap
     ethr =  8.53E-03,  avg # of iterations =  1.0

     total cpu time spent up to now is        0.4 secs

     total energy              =     -21.45951726 Ry
     Harris-Foulkes estimate   =     -21.81261704 Ry
     estimated scf accuracy    <       0.39336296 Ry

     iteration #  3     ecut=    90.00 Ry     beta= 0.20
     Davidson diagonalization with overlap
     ethr =  4.92E-03,  avg # of iterations =  2.0

     total cpu time spent up to now is        0.5 secs

     total energy              =     -21.50145524 Ry
     Harris-Foulkes estimate   =     -21.50184140 Ry
     estimated scf accuracy    <       0.00013213 Ry

     iteration #  4     ecut=    90.00 Ry     beta= 0.20
     Davidson diagonalization with overlap
     ethr =  1.65E-06,  avg # of iterations =  3.0

     total cpu time spent up to now is        0.6 secs

     total energy              =     -21.50195600 Ry
     Harris-Foulkes estimate   =     -21.50208871 Ry
     estimated scf accuracy    <       0.00007281 Ry

     iteration #  5     ecut=    90.00 Ry     beta= 0.20
     Davidson diagonalization with overlap
     ethr =  9.10E-07,  avg # of iterations =  2.0

     total cpu time spent up to now is        0.7 secs

     total energy              =     -21.50191720 Ry
     Harris-Foulkes estimate   =     -21.50197523 Ry
     estimated scf accuracy    <       0.00004636 Ry

     iteration #  6     ecut=    90.00 Ry     beta= 0.20
     Davidson diagonalization with overlap
     ethr =  5.80E-07,  avg # of iterations =  1.6

     total cpu time spent up to now is        0.7 secs

     total energy              =     -21.50192071 Ry
     Harris-Foulkes estimate   =     -21.50192094 Ry
     estimated scf accuracy    <       0.00000030 Ry

     iteration #  7     ecut=    90.00 Ry     beta= 0.20
     Davidson diagonalization with overlap
     ethr =  3.73E-09,  avg # of iterations =  2.1

     total cpu time spent up to now is        0.8 secs

     total energy              =     -21.50192074 Ry
     Harris-Foulkes estimate   =     -21.50192081 Ry
     estimated scf accuracy    <       0.00000012 Ry

     iteration #  8     ecut=    90.00 Ry     beta= 0.20
     Davidson diagonalization with overlap
     ethr =  1.48E-09,  avg # of iterations =  1.5

     total cpu time spent up to now is        0.9 secs

     End of self-consistent calculation

          k = 0.0000 0.0000 0.0000 (   137 PWs)   bands (ev):

    35.7939 111.5493 111.5493 111.5493

          k =-0.2500 0.2500-0.2500 (   138 PWs)   bands (ev):

    35.5531  83.5418  99.7962  99.7962

          k = 0.5000-0.5000 0.5000 (   138 PWs)   bands (ev):

    34.5129  72.7395  95.6388  95.6388

          k = 0.0000 0.5000 0.0000 (   133 PWs)   bands (ev):

    37.8377  83.4861  83.4861  97.4048

          k = 0.7500-0.2500 0.7500 (   130 PWs)   bands (ev):

    40.8349  68.2576  80.3488  82.5335

          k = 0.5000 0.0000 0.5000 (   134 PWs)   bands (ev):

    37.8416  71.5632  83.3121  92.4909

          k = 0.0000-1.0000 0.0000 (   116 PWs)   bands (ev):

    56.0101  56.0101  72.2631  72.2631

          k =-0.5000-1.0000 0.0000 (   116 PWs)   bands (ev):

    52.2439  52.2439  77.5477  77.5477

     highest occupied level (ev):   111.5493

!    total energy              =     -21.50192074 Ry
     Harris-Foulkes estimate   =     -21.50192075 Ry
     estimated scf accuracy    <          2.0E-10 Ry

     total all-electron energy =      -137.030115 Ry

     The total energy is the sum of the following terms:

     one-electron contribution =      58.60045430 Ry
     hartree contribution      =       0.47495062 Ry
     xc contribution           =     -15.60178935 Ry
     ewald contribution        =     -52.23561741 Ry
     one-center paw contrib.   =     -12.73991890 Ry

     convergence has been achieved in   8 iterations

     Writing output data file diamond.save/

     init_run     :      0.13s CPU      0.13s WALL (       1 calls)
     electrons    :      1.18s CPU      0.56s WALL (       1 calls)

     Called by init_run:
     wfcinit      :      0.01s CPU      0.00s WALL (       1 calls)
     potinit      :      0.04s CPU      0.04s WALL (       1 calls)
     hinit0       :      0.08s CPU      0.08s WALL (       1 calls)

     Called by electrons:
     c_bands      :      0.10s CPU      0.06s WALL (       8 calls)
     sum_band     :      0.02s CPU      0.01s WALL (       8 calls)
     v_of_rho     :      0.01s CPU      0.01s WALL (       9 calls)
     newd         :      0.01s CPU      0.00s WALL (       9 calls)
     PAW_pot      :      1.07s CPU      0.52s WALL (       9 calls)
     mix_rho      :      0.00s CPU      0.00s WALL (       8 calls)

     Called by c_bands:
     init_us_2    :      0.01s CPU      0.00s WALL (     136 calls)
     cegterg      :      0.09s CPU      0.05s WALL (      64 calls)

     Called by sum_band:
     sum_band:bec :      0.00s CPU      0.00s WALL (      64 calls)
     addusdens    :      0.01s CPU      0.00s WALL (       8 calls)

     Called by *egterg:
     h_psi        :      0.06s CPU      0.03s WALL (     203 calls)
     s_psi        :      0.00s CPU      0.00s WALL (     203 calls)
     g_psi        :      0.00s CPU      0.00s WALL (     131 calls)
     cdiaghg      :      0.02s CPU      0.02s WALL (     195 calls)

     Called by h_psi:
     h_psi:pot    :      0.06s CPU      0.03s WALL (     203 calls)
     h_psi:calbec :      0.00s CPU      0.00s WALL (     203 calls)
     vloc_psi     :      0.05s CPU      0.02s WALL (     203 calls)
     add_vuspsi   :      0.00s CPU      0.00s WALL (     203 calls)

     General routines
     calbec       :      0.01s CPU      0.00s WALL (     267 calls)
     fft          :      0.00s CPU      0.00s WALL (      99 calls)
     ffts         :      0.00s CPU      0.00s WALL (       8 calls)
     fftw         :      0.04s CPU      0.02s WALL (    1786 calls)

     Parallel routines

     PWSCF        :      1.49s CPU      0.87s WALL


   This run was terminated on:  20:20:33  12May2023            

=------------------------------------------------------------------------------=
   JOB DONE.
=------------------------------------------------------------------------------=
