
     Program PWSCF v.6.4.1 starts on 12May2023 at 20:21: 3 

     This program is part of the open-source Quantum ESPRESSO suite
     for quantum simulation of materials; please cite
         "P. Giannozzi et al., J. Phys.:Condens. Matter 21 395502 (2009);
         "P. Giannozzi et al., J. Phys.:Condens. Matter 29 465901 (2017);
          URL http://www.quantum-espresso.org", 
     in publications or presentations arising from this work. More details at
     http://www.quantum-espresso.org/quote

     Parallel version (MPI), running on     1 processors

     MPI processes distributed on     1 nodes
     Waiting for input...
     Reading input from standard input

     Current dimensions of program PWSCF are:
     Max number of different atomic species (ntypx) = 10
     Max number of k-points (npk) =  40000
     Max angular momentum in pseudopotentials (lmaxx) =  3
               file C.pbe-n-kjpaw_psl.1.0.0.UPF: wavefunction(s)  2S 2P renormalized

     Subspace diagonalization in iterative solution of the eigenvalue problem:
     a serial algorithm will be used


     G-vector sticks info
     --------------------
     sticks:   dense  smooth     PW     G-vecs:    dense   smooth      PW
     Sum         271     271     91                 2975     2975     561



     bravais-lattice index     =            2
     lattice parameter (alat)  =       4.7000  a.u.
     unit-cell volume          =      25.9558 (a.u.)^3
     number of atoms/cell      =            2
     number of atomic types    =            1
     number of electrons       =         8.00
     number of Kohn-Sham states=            4
     kinetic-energy cutoff     =      90.0000  Ry
     charge density cutoff     =     360.0000  Ry
     convergence threshold     =      1.0E-08
     mixing beta               =       0.2000
     number of iterations used =            8  plain     mixing
     Exchange-correlation      = SLA PW PBX PBC ( 1  4  3  4 0 0)

     celldm(1)=   4.700000  celldm(2)=   0.000000  celldm(3)=   0.000000
     celldm(4)=   0.000000  celldm(5)=   0.000000  celldm(6)=   0.000000

     crystal axes: (cart. coord. in units of alat)
               a(1) = (  -0.500000   0.000000   0.500000 )  
               a(2) = (   0.000000   0.500000   0.500000 )  
               a(3) = (  -0.500000   0.500000   0.000000 )  

     reciprocal axes: (cart. coord. in units 2 pi/alat)
               b(1) = ( -1.000000 -1.000000  1.000000 )  
               b(2) = (  1.000000  1.000000  1.000000 )  
               b(3) = ( -1.000000  1.000000 -1.000000 )  


     PseudoPot. # 1 for C  read from file:
     ../../pseudo/C.pbe-n-kjpaw_psl.1.0.0.UPF
     MD5 check sum: 5f16ad9a65e90284d1d834d4ab3b0f7d
     Pseudo is Projector augmented-wave + core cor, Zval =  4.0
     Generated using "atomic" code by A. Dal Corso v.6.3
     Shape of augmentation charge: PSQ
     Using radial grid of 1073 points,  4 beta functions with: 
                l(1) =   0
                l(2) =   0
                l(3) =   1
                l(4) =   1
     Q(r) pseudized with 0 coefficients 


     atomic species   valence    mass     pseudopotential
        C              4.00    12.00000     C ( 1.00)

     48 Sym. Ops., with inversion, found (36 have fractional translation)



   Cartesian axes

     site n.     atom                  positions (alat units)
         1           C   tau(   1) = (  -0.1250000   0.1250000   0.1250000  )
         2           C   tau(   2) = (  -0.8750000   0.8750000   0.8750000  )

     number of k points=     8
                       cart. coord. in units 2pi/alat
        k(    1) = (   0.0000000   0.0000000   0.0000000), wk =   0.0312500
        k(    2) = (  -0.2500000   0.2500000  -0.2500000), wk =   0.2500000
        k(    3) = (   0.5000000  -0.5000000   0.5000000), wk =   0.1250000
        k(    4) = (   0.0000000   0.5000000   0.0000000), wk =   0.1875000
        k(    5) = (   0.7500000  -0.2500000   0.7500000), wk =   0.7500000
        k(    6) = (   0.5000000   0.0000000   0.5000000), wk =   0.3750000
        k(    7) = (   0.0000000  -1.0000000   0.0000000), wk =   0.0937500
        k(    8) = (  -0.5000000  -1.0000000   0.0000000), wk =   0.1875000

     Dense  grid:     2975 G-vectors     FFT dimensions: (  24,  24,  24)

     Estimated max dynamical RAM per process >       4.85 MB

     Check: negative core charge=   -0.000011

     Initial potential from superposition of free atoms

     starting charge    7.99992, renormalised to    8.00000
     Starting wfcs are    8 randomized atomic wfcs
     Checking if some PAW data can be deallocated... 

     total cpu time spent up to now is        0.6 secs

     Self-consistent Calculation

     iteration #  1     ecut=    90.00 Ry     beta= 0.20
     Davidson diagonalization with overlap
     ethr =  1.00E-04,  avg # of iterations =  3.6

     total cpu time spent up to now is        0.7 secs

     total energy              =     -34.66084681 Ry
     Harris-Foulkes estimate   =     -34.81375489 Ry
     estimated scf accuracy    <       0.57987263 Ry

     iteration #  2     ecut=    90.00 Ry     beta= 0.20
     Davidson diagonalization with overlap
     ethr =  7.25E-03,  avg # of iterations =  1.0

     total cpu time spent up to now is        0.8 secs

     total energy              =     -34.45346076 Ry
     Harris-Foulkes estimate   =     -34.66480811 Ry
     estimated scf accuracy    <       0.32828965 Ry

     iteration #  3     ecut=    90.00 Ry     beta= 0.20
     Davidson diagonalization with overlap
     ethr =  4.10E-03,  avg # of iterations =  2.0

     total cpu time spent up to now is        0.9 secs

     total energy              =     -34.48954287 Ry
     Harris-Foulkes estimate   =     -34.48957552 Ry
     estimated scf accuracy    <       0.00032457 Ry

     iteration #  4     ecut=    90.00 Ry     beta= 0.20
     Davidson diagonalization with overlap
     ethr =  4.06E-06,  avg # of iterations =  3.1

     total cpu time spent up to now is        1.0 secs

     total energy              =     -34.49060505 Ry
     Harris-Foulkes estimate   =     -34.49061603 Ry
     estimated scf accuracy    <       0.00017308 Ry

     iteration #  5     ecut=    90.00 Ry     beta= 0.20
     Davidson diagonalization with overlap
     ethr =  2.16E-06,  avg # of iterations =  2.0

     total cpu time spent up to now is        1.1 secs

     total energy              =     -34.49062048 Ry
     Harris-Foulkes estimate   =     -34.49063065 Ry
     estimated scf accuracy    <       0.00005242 Ry

     iteration #  6     ecut=    90.00 Ry     beta= 0.20
     Davidson diagonalization with overlap
     ethr =  6.55E-07,  avg # of iterations =  1.0

     total cpu time spent up to now is        1.2 secs

     total energy              =     -34.49062067 Ry
     Harris-Foulkes estimate   =     -34.49062236 Ry
     estimated scf accuracy    <       0.00000535 Ry

     iteration #  7     ecut=    90.00 Ry     beta= 0.20
     Davidson diagonalization with overlap
     ethr =  6.69E-08,  avg # of iterations =  1.8

     total cpu time spent up to now is        1.4 secs

     total energy              =     -34.49062115 Ry
     Harris-Foulkes estimate   =     -34.49062113 Ry
     estimated scf accuracy    <       0.00000003 Ry

     iteration #  8     ecut=    90.00 Ry     beta= 0.20
     Davidson diagonalization with overlap
     ethr =  3.55E-10,  avg # of iterations =  2.8

     total cpu time spent up to now is        1.5 secs

     total energy              =     -34.49062115 Ry
     Harris-Foulkes estimate   =     -34.49062116 Ry
     estimated scf accuracy    <       0.00000005 Ry

     iteration #  9     ecut=    90.00 Ry     beta= 0.20
     Davidson diagonalization with overlap
     ethr =  3.55E-10,  avg # of iterations =  1.0

     total cpu time spent up to now is        1.6 secs

     End of self-consistent calculation

          k = 0.0000 0.0000 0.0000 (   339 PWs)   bands (ev):

     1.5507  44.0182  44.0182  44.0182

          k =-0.2500 0.2500-0.2500 (   368 PWs)   bands (ev):

     4.5456  29.4586  39.2656  39.2656

          k = 0.5000-0.5000 0.5000 (   368 PWs)   bands (ev):

    11.0586  17.4347  36.9161  36.9161

          k = 0.0000 0.5000 0.0000 (   375 PWs)   bands (ev):

     5.6804  32.5644  32.5644  37.0866

          k = 0.7500-0.2500 0.7500 (   377 PWs)   bands (ev):

    12.5181  21.5180  29.3594  30.9241

          k = 0.5000 0.0000 0.5000 (   373 PWs)   bands (ev):

     9.5011  26.1034  26.5576  36.0124

          k = 0.0000-1.0000 0.0000 (   388 PWs)   bands (ev):

    18.5800  18.5800  27.3191  27.3191

          k =-0.5000-1.0000 0.0000 (   380 PWs)   bands (ev):

    20.3228  20.3228  23.8016  23.8016

     highest occupied level (ev):    44.0182

!    total energy              =     -34.49062115 Ry
     Harris-Foulkes estimate   =     -34.49062115 Ry
     estimated scf accuracy    <          6.5E-09 Ry

     total all-electron energy =      -150.018816 Ry

     The total energy is the sum of the following terms:

     one-electron contribution =      25.39170245 Ry
     hartree contribution      =       1.06507805 Ry
     xc contribution           =     -11.81647165 Ry
     ewald contribution        =     -36.67607179 Ry
     one-center paw contrib.   =     -12.45485821 Ry

     convergence has been achieved in   9 iterations

     Writing output data file diamond.save/

     init_run     :      0.35s CPU      0.30s WALL (       1 calls)
     electrons    :      2.52s CPU      1.04s WALL (       1 calls)

     Called by init_run:
     wfcinit      :      0.20s CPU      0.15s WALL (       1 calls)
     potinit      :      0.05s CPU      0.05s WALL (       1 calls)
     hinit0       :      0.10s CPU      0.10s WALL (       1 calls)

     Called by electrons:
     c_bands      :      0.64s CPU      0.27s WALL (       9 calls)
     sum_band     :      0.20s CPU      0.06s WALL (       9 calls)
     v_of_rho     :      0.11s CPU      0.05s WALL (      10 calls)
     newd         :      0.04s CPU      0.04s WALL (      10 calls)
     PAW_pot      :      1.56s CPU      0.66s WALL (      10 calls)
     mix_rho      :      0.01s CPU      0.00s WALL (       9 calls)

     Called by c_bands:
     init_us_2    :      0.03s CPU      0.01s WALL (     152 calls)
     cegterg      :      0.58s CPU      0.25s WALL (      72 calls)

     Called by sum_band:
     sum_band:bec :      0.00s CPU      0.00s WALL (      72 calls)
     addusdens    :      0.04s CPU      0.02s WALL (       9 calls)

     Called by *egterg:
     h_psi        :      0.67s CPU      0.32s WALL (     226 calls)
     s_psi        :      0.02s CPU      0.03s WALL (     226 calls)
     g_psi        :      0.00s CPU      0.00s WALL (     146 calls)
     cdiaghg      :      0.04s CPU      0.03s WALL (     218 calls)

     Called by h_psi:
     h_psi:pot    :      0.66s CPU      0.32s WALL (     226 calls)
     h_psi:calbec :      0.16s CPU      0.12s WALL (     226 calls)
     vloc_psi     :      0.48s CPU      0.19s WALL (     226 calls)
     add_vuspsi   :      0.02s CPU      0.01s WALL (     226 calls)

     General routines
     calbec       :      0.17s CPU      0.12s WALL (     298 calls)
     fft          :      0.05s CPU      0.02s WALL (     110 calls)
     ffts         :      0.01s CPU      0.00s WALL (       9 calls)
     fftw         :      0.49s CPU      0.18s WALL (    1990 calls)

     Parallel routines

     PWSCF        :      3.13s CPU      1.61s WALL


   This run was terminated on:  20:21: 5  12May2023            

=------------------------------------------------------------------------------=
   JOB DONE.
=------------------------------------------------------------------------------=
