
     Program PWSCF v.6.4.1 starts on 12May2023 at 20:20:36 

     This program is part of the open-source Quantum ESPRESSO suite
     for quantum simulation of materials; please cite
         "P. Giannozzi et al., J. Phys.:Condens. Matter 21 395502 (2009);
         "P. Giannozzi et al., J. Phys.:Condens. Matter 29 465901 (2017);
          URL http://www.quantum-espresso.org", 
     in publications or presentations arising from this work. More details at
     http://www.quantum-espresso.org/quote

     Parallel version (MPI), running on     1 processors

     MPI processes distributed on     1 nodes
     Waiting for input...
     Reading input from standard input

     Current dimensions of program PWSCF are:
     Max number of different atomic species (ntypx) = 10
     Max number of k-points (npk) =  40000
     Max angular momentum in pseudopotentials (lmaxx) =  3
               file C.pbe-n-kjpaw_psl.1.0.0.UPF: wavefunction(s)  2S 2P renormalized

     Subspace diagonalization in iterative solution of the eigenvalue problem:
     a serial algorithm will be used


     G-vector sticks info
     --------------------
     sticks:   dense  smooth     PW     G-vecs:    dense   smooth      PW
     Sum         151     151     55                 1243     1243     283



     bravais-lattice index     =            2
     lattice parameter (alat)  =       3.5000  a.u.
     unit-cell volume          =      10.7188 (a.u.)^3
     number of atoms/cell      =            2
     number of atomic types    =            1
     number of electrons       =         8.00
     number of Kohn-Sham states=            4
     kinetic-energy cutoff     =      90.0000  Ry
     charge density cutoff     =     360.0000  Ry
     convergence threshold     =      1.0E-08
     mixing beta               =       0.2000
     number of iterations used =            8  plain     mixing
     Exchange-correlation      = SLA PW PBX PBC ( 1  4  3  4 0 0)

     celldm(1)=   3.500000  celldm(2)=   0.000000  celldm(3)=   0.000000
     celldm(4)=   0.000000  celldm(5)=   0.000000  celldm(6)=   0.000000

     crystal axes: (cart. coord. in units of alat)
               a(1) = (  -0.500000   0.000000   0.500000 )  
               a(2) = (   0.000000   0.500000   0.500000 )  
               a(3) = (  -0.500000   0.500000   0.000000 )  

     reciprocal axes: (cart. coord. in units 2 pi/alat)
               b(1) = ( -1.000000 -1.000000  1.000000 )  
               b(2) = (  1.000000  1.000000  1.000000 )  
               b(3) = ( -1.000000  1.000000 -1.000000 )  


     PseudoPot. # 1 for C  read from file:
     ../../pseudo/C.pbe-n-kjpaw_psl.1.0.0.UPF
     MD5 check sum: 5f16ad9a65e90284d1d834d4ab3b0f7d
     Pseudo is Projector augmented-wave + core cor, Zval =  4.0
     Generated using "atomic" code by A. Dal Corso v.6.3
     Shape of augmentation charge: PSQ
     Using radial grid of 1073 points,  4 beta functions with: 
                l(1) =   0
                l(2) =   0
                l(3) =   1
                l(4) =   1
     Q(r) pseudized with 0 coefficients 


     atomic species   valence    mass     pseudopotential
        C              4.00    12.00000     C ( 1.00)

     48 Sym. Ops., with inversion, found (36 have fractional translation)



   Cartesian axes

     site n.     atom                  positions (alat units)
         1           C   tau(   1) = (  -0.1250000   0.1250000   0.1250000  )
         2           C   tau(   2) = (  -0.8750000   0.8750000   0.8750000  )

     number of k points=     8
                       cart. coord. in units 2pi/alat
        k(    1) = (   0.0000000   0.0000000   0.0000000), wk =   0.0312500
        k(    2) = (  -0.2500000   0.2500000  -0.2500000), wk =   0.2500000
        k(    3) = (   0.5000000  -0.5000000   0.5000000), wk =   0.1250000
        k(    4) = (   0.0000000   0.5000000   0.0000000), wk =   0.1875000
        k(    5) = (   0.7500000  -0.2500000   0.7500000), wk =   0.7500000
        k(    6) = (   0.5000000   0.0000000   0.5000000), wk =   0.3750000
        k(    7) = (   0.0000000  -1.0000000   0.0000000), wk =   0.0937500
        k(    8) = (  -0.5000000  -1.0000000   0.0000000), wk =   0.1875000

     Dense  grid:     1243 G-vectors     FFT dimensions: (  16,  16,  16)

     Estimated max dynamical RAM per process >       2.02 MB

     Check: negative core charge=   -0.000002

     Initial potential from superposition of free atoms

     starting charge    7.99992, renormalised to    8.00000
     Starting wfcs are    8 randomized atomic wfcs
     Checking if some PAW data can be deallocated... 

     total cpu time spent up to now is        0.3 secs

     Self-consistent Calculation

     iteration #  1     ecut=    90.00 Ry     beta= 0.20
     Davidson diagonalization with overlap
     ethr =  1.00E-04,  avg # of iterations =  3.0

     total cpu time spent up to now is        0.4 secs

     total energy              =     -25.21066364 Ry
     Harris-Foulkes estimate   =     -25.49616758 Ry
     estimated scf accuracy    <       0.72589996 Ry

     iteration #  2     ecut=    90.00 Ry     beta= 0.20
     Davidson diagonalization with overlap
     ethr =  9.07E-03,  avg # of iterations =  1.0

     total cpu time spent up to now is        0.4 secs

     total energy              =     -24.87389926 Ry
     Harris-Foulkes estimate   =     -25.21612323 Ry
     estimated scf accuracy    <       0.41647757 Ry

     iteration #  3     ecut=    90.00 Ry     beta= 0.20
     Davidson diagonalization with overlap
     ethr =  5.21E-03,  avg # of iterations =  2.0

     total cpu time spent up to now is        0.5 secs

     total energy              =     -24.91949251 Ry
     Harris-Foulkes estimate   =     -24.91971774 Ry
     estimated scf accuracy    <       0.00015458 Ry

     iteration #  4     ecut=    90.00 Ry     beta= 0.20
     Davidson diagonalization with overlap
     ethr =  1.93E-06,  avg # of iterations =  3.0

     total cpu time spent up to now is        0.6 secs

     total energy              =     -24.92023784 Ry
     Harris-Foulkes estimate   =     -24.92033041 Ry
     estimated scf accuracy    <       0.00007308 Ry

     iteration #  5     ecut=    90.00 Ry     beta= 0.20
     Davidson diagonalization with overlap
     ethr =  9.13E-07,  avg # of iterations =  2.0

     total cpu time spent up to now is        0.7 secs

     total energy              =     -24.92019999 Ry
     Harris-Foulkes estimate   =     -24.92025302 Ry
     estimated scf accuracy    <       0.00002701 Ry

     iteration #  6     ecut=    90.00 Ry     beta= 0.20
     Davidson diagonalization with overlap
     ethr =  3.38E-07,  avg # of iterations =  1.9

     total cpu time spent up to now is        0.7 secs

     total energy              =     -24.92020234 Ry
     Harris-Foulkes estimate   =     -24.92020265 Ry
     estimated scf accuracy    <       0.00000079 Ry

     iteration #  7     ecut=    90.00 Ry     beta= 0.20
     Davidson diagonalization with overlap
     ethr =  9.86E-09,  avg # of iterations =  1.5

     total cpu time spent up to now is        0.8 secs

     total energy              =     -24.92020229 Ry
     Harris-Foulkes estimate   =     -24.92020238 Ry
     estimated scf accuracy    <       0.00000016 Ry

     iteration #  8     ecut=    90.00 Ry     beta= 0.20
     Davidson diagonalization with overlap
     ethr =  1.97E-09,  avg # of iterations =  2.0

     total cpu time spent up to now is        0.9 secs

     End of self-consistent calculation

          k = 0.0000 0.0000 0.0000 (   169 PWs)   bands (ev):

    26.2962  96.3894  96.3894  96.3894

          k =-0.2500 0.2500-0.2500 (   150 PWs)   bands (ev):

    27.7679  70.7857  86.2745  86.2745

          k = 0.5000-0.5000 0.5000 (   156 PWs)   bands (ev):

    29.2635  59.1102  82.4098  82.4098

          k = 0.0000 0.5000 0.0000 (   149 PWs)   bands (ev):

    29.7941  72.0569  72.0569  84.2819

          k = 0.7500-0.2500 0.7500 (   154 PWs)   bands (ev):

    34.5693  57.6798  69.2035  70.3223

          k = 0.5000 0.0000 0.5000 (   156 PWs)   bands (ev):

    31.3977  61.5801  69.4865  79.8213

          k = 0.0000-1.0000 0.0000 (   150 PWs)   bands (ev):

    47.8200  47.8200  62.0565  62.0565

          k =-0.5000-1.0000 0.0000 (   156 PWs)   bands (ev):

    45.0995  45.0995  65.3674  65.3674

     highest occupied level (ev):    96.3894

!    total energy              =     -24.92020231 Ry
     Harris-Foulkes estimate   =     -24.92020231 Ry
     estimated scf accuracy    <          2.3E-09 Ry

     total all-electron energy =      -140.448397 Ry

     The total energy is the sum of the following terms:

     one-electron contribution =      51.32471643 Ry
     hartree contribution      =       0.55523476 Ry
     xc contribution           =     -14.86123331 Ry
     ewald contribution        =     -49.25072571 Ry
     one-center paw contrib.   =     -12.68819447 Ry

     convergence has been achieved in   8 iterations

     Writing output data file diamond.save/

     init_run     :      0.13s CPU      0.13s WALL (       1 calls)
     electrons    :      1.27s CPU      0.58s WALL (       1 calls)

     Called by init_run:
     wfcinit      :      0.01s CPU      0.00s WALL (       1 calls)
     potinit      :      0.04s CPU      0.04s WALL (       1 calls)
     hinit0       :      0.08s CPU      0.08s WALL (       1 calls)

     Called by electrons:
     c_bands      :      0.11s CPU      0.06s WALL (       8 calls)
     sum_band     :      0.04s CPU      0.01s WALL (       8 calls)
     v_of_rho     :      0.02s CPU      0.01s WALL (       9 calls)
     newd         :      0.01s CPU      0.00s WALL (       9 calls)
     PAW_pot      :      1.12s CPU      0.53s WALL (       9 calls)
     mix_rho      :      0.00s CPU      0.00s WALL (       8 calls)

     Called by c_bands:
     init_us_2    :      0.01s CPU      0.00s WALL (     136 calls)
     cegterg      :      0.10s CPU      0.05s WALL (      64 calls)

     Called by sum_band:
     sum_band:bec :      0.00s CPU      0.00s WALL (      64 calls)
     addusdens    :      0.01s CPU      0.00s WALL (       8 calls)

     Called by *egterg:
     h_psi        :      0.06s CPU      0.03s WALL (     203 calls)
     s_psi        :      0.00s CPU      0.00s WALL (     203 calls)
     g_psi        :      0.00s CPU      0.00s WALL (     131 calls)
     cdiaghg      :      0.02s CPU      0.02s WALL (     195 calls)

     Called by h_psi:
     h_psi:pot    :      0.06s CPU      0.03s WALL (     203 calls)
     h_psi:calbec :      0.01s CPU      0.00s WALL (     203 calls)
     vloc_psi     :      0.05s CPU      0.02s WALL (     203 calls)
     add_vuspsi   :      0.00s CPU      0.00s WALL (     203 calls)

     General routines
     calbec       :      0.01s CPU      0.00s WALL (     267 calls)
     fft          :      0.00s CPU      0.00s WALL (      99 calls)
     ffts         :      0.00s CPU      0.00s WALL (       8 calls)
     fftw         :      0.04s CPU      0.02s WALL (    1766 calls)

     Parallel routines

     PWSCF        :      1.58s CPU      0.89s WALL


   This run was terminated on:  20:20:37  12May2023            

=------------------------------------------------------------------------------=
   JOB DONE.
=------------------------------------------------------------------------------=
