
     Program PWSCF v.6.4.1 starts on 12May2023 at 20:22:12 

     This program is part of the open-source Quantum ESPRESSO suite
     for quantum simulation of materials; please cite
         "P. Giannozzi et al., J. Phys.:Condens. Matter 21 395502 (2009);
         "P. Giannozzi et al., J. Phys.:Condens. Matter 29 465901 (2017);
          URL http://www.quantum-espresso.org", 
     in publications or presentations arising from this work. More details at
     http://www.quantum-espresso.org/quote

     Parallel version (MPI), running on     1 processors

     MPI processes distributed on     1 nodes
     Waiting for input...
     Reading input from standard input

     Current dimensions of program PWSCF are:
     Max number of different atomic species (ntypx) = 10
     Max number of k-points (npk) =  40000
     Max angular momentum in pseudopotentials (lmaxx) =  3
               file C.pbe-n-kjpaw_psl.1.0.0.UPF: wavefunction(s)  2S 2P renormalized

     Subspace diagonalization in iterative solution of the eigenvalue problem:
     a serial algorithm will be used


     G-vector sticks info
     --------------------
     sticks:   dense  smooth     PW     G-vecs:    dense   smooth      PW
     Sum         595     595    187                 9841     9841    1687



     bravais-lattice index     =            2
     lattice parameter (alat)  =       7.0000  a.u.
     unit-cell volume          =      85.7500 (a.u.)^3
     number of atoms/cell      =            2
     number of atomic types    =            1
     number of electrons       =         8.00
     number of Kohn-Sham states=            4
     kinetic-energy cutoff     =      90.0000  Ry
     charge density cutoff     =     360.0000  Ry
     convergence threshold     =      1.0E-08
     mixing beta               =       0.2000
     number of iterations used =            8  plain     mixing
     Exchange-correlation      = SLA PW PBX PBC ( 1  4  3  4 0 0)

     celldm(1)=   7.000000  celldm(2)=   0.000000  celldm(3)=   0.000000
     celldm(4)=   0.000000  celldm(5)=   0.000000  celldm(6)=   0.000000

     crystal axes: (cart. coord. in units of alat)
               a(1) = (  -0.500000   0.000000   0.500000 )  
               a(2) = (   0.000000   0.500000   0.500000 )  
               a(3) = (  -0.500000   0.500000   0.000000 )  

     reciprocal axes: (cart. coord. in units 2 pi/alat)
               b(1) = ( -1.000000 -1.000000  1.000000 )  
               b(2) = (  1.000000  1.000000  1.000000 )  
               b(3) = ( -1.000000  1.000000 -1.000000 )  


     PseudoPot. # 1 for C  read from file:
     ../../pseudo/C.pbe-n-kjpaw_psl.1.0.0.UPF
     MD5 check sum: 5f16ad9a65e90284d1d834d4ab3b0f7d
     Pseudo is Projector augmented-wave + core cor, Zval =  4.0
     Generated using "atomic" code by A. Dal Corso v.6.3
     Shape of augmentation charge: PSQ
     Using radial grid of 1073 points,  4 beta functions with: 
                l(1) =   0
                l(2) =   0
                l(3) =   1
                l(4) =   1
     Q(r) pseudized with 0 coefficients 


     atomic species   valence    mass     pseudopotential
        C              4.00    12.00000     C ( 1.00)

     48 Sym. Ops., with inversion, found (36 have fractional translation)



   Cartesian axes

     site n.     atom                  positions (alat units)
         1           C   tau(   1) = (  -0.1250000   0.1250000   0.1250000  )
         2           C   tau(   2) = (  -0.8750000   0.8750000   0.8750000  )

     number of k points=     8
                       cart. coord. in units 2pi/alat
        k(    1) = (   0.0000000   0.0000000   0.0000000), wk =   0.0312500
        k(    2) = (  -0.2500000   0.2500000  -0.2500000), wk =   0.2500000
        k(    3) = (   0.5000000  -0.5000000   0.5000000), wk =   0.1250000
        k(    4) = (   0.0000000   0.5000000   0.0000000), wk =   0.1875000
        k(    5) = (   0.7500000  -0.2500000   0.7500000), wk =   0.7500000
        k(    6) = (   0.5000000   0.0000000   0.5000000), wk =   0.3750000
        k(    7) = (   0.0000000  -1.0000000   0.0000000), wk =   0.0937500
        k(    8) = (  -0.5000000  -1.0000000   0.0000000), wk =   0.1875000

     Dense  grid:     9841 G-vectors     FFT dimensions: (  30,  30,  30)

     Estimated max dynamical RAM per process >      14.17 MB

     Check: negative core charge=   -0.000013

     Initial potential from superposition of free atoms

     starting charge    7.99992, renormalised to    8.00000
     Starting wfcs are    8 randomized atomic wfcs
     Checking if some PAW data can be deallocated... 

     total cpu time spent up to now is        0.5 secs

     Self-consistent Calculation

     iteration #  1     ecut=    90.00 Ry     beta= 0.20
     Davidson diagonalization with overlap
     ethr =  1.00E-04,  avg # of iterations =  3.9

     total cpu time spent up to now is        0.8 secs

     total energy              =     -36.86304128 Ry
     Harris-Foulkes estimate   =     -36.87913733 Ry
     estimated scf accuracy    <       0.09318390 Ry

     iteration #  2     ecut=    90.00 Ry     beta= 0.20
     Davidson diagonalization with overlap
     ethr =  1.16E-03,  avg # of iterations =  1.0

     total cpu time spent up to now is        0.9 secs

     total energy              =     -36.84177572 Ry
     Harris-Foulkes estimate   =     -36.86360064 Ry
     estimated scf accuracy    <       0.05293312 Ry

     iteration #  3     ecut=    90.00 Ry     beta= 0.20
     Davidson diagonalization with overlap
     ethr =  6.62E-04,  avg # of iterations =  1.5

     total cpu time spent up to now is        1.2 secs

     total energy              =     -36.84633567 Ry
     Harris-Foulkes estimate   =     -36.84635597 Ry
     estimated scf accuracy    <       0.00054122 Ry

     iteration #  4     ecut=    90.00 Ry     beta= 0.20
     Davidson diagonalization with overlap
     ethr =  6.77E-06,  avg # of iterations =  2.2

     total cpu time spent up to now is        1.4 secs

     total energy              =     -36.84653936 Ry
     Harris-Foulkes estimate   =     -36.84653445 Ry
     estimated scf accuracy    <       0.00001084 Ry

     iteration #  5     ecut=    90.00 Ry     beta= 0.20
     Davidson diagonalization with overlap
     ethr =  1.36E-07,  avg # of iterations =  2.4

     total cpu time spent up to now is        1.6 secs

     total energy              =     -36.84654299 Ry
     Harris-Foulkes estimate   =     -36.84654244 Ry
     estimated scf accuracy    <       0.00000075 Ry

     iteration #  6     ecut=    90.00 Ry     beta= 0.20
     Davidson diagonalization with overlap
     ethr =  9.35E-09,  avg # of iterations =  2.2

     total cpu time spent up to now is        1.8 secs

     total energy              =     -36.84654352 Ry
     Harris-Foulkes estimate   =     -36.84654306 Ry
     estimated scf accuracy    <       0.00000029 Ry

     iteration #  7     ecut=    90.00 Ry     beta= 0.20
     Davidson diagonalization with overlap
     ethr =  3.63E-09,  avg # of iterations =  2.0

     total cpu time spent up to now is        2.1 secs

     End of self-consistent calculation

          k = 0.0000 0.0000 0.0000 (  1243 PWs)   bands (ev):

    -8.6046  11.4197  11.4197  11.4197

          k =-0.2500 0.2500-0.2500 (  1245 PWs)   bands (ev):

    -7.0241   5.3295   9.8574   9.8574

          k = 0.5000-0.5000 0.5000 (  1224 PWs)   bands (ev):

    -3.4471  -0.7752   8.8959   8.8959

          k = 0.0000 0.5000 0.0000 (  1243 PWs)   bands (ev):

    -6.4969   7.0162   7.7422   7.7422

          k = 0.7500-0.2500 0.7500 (  1236 PWs)   bands (ev):

    -3.1021   1.3945   5.2544   7.0497

          k = 0.5000 0.0000 0.5000 (  1243 PWs)   bands (ev):

    -4.5061   3.2415   4.5611   8.7169

          k = 0.0000-1.0000 0.0000 (  1234 PWs)   bands (ev):

    -0.5934  -0.5934   5.7682   5.7682

          k =-0.5000-1.0000 0.0000 (  1232 PWs)   bands (ev):

     0.0315   0.0315   4.0184   4.0184

     highest occupied level (ev):    11.4197

!    total energy              =     -36.84654358 Ry
     Harris-Foulkes estimate   =     -36.84654358 Ry
     estimated scf accuracy    <          2.3E-09 Ry

     total all-electron energy =      -152.374738 Ry

     The total energy is the sum of the following terms:

     one-electron contribution =       7.21876493 Ry
     hartree contribution      =       2.07744247 Ry
     xc contribution           =      -9.19732710 Ry
     ewald contribution        =     -24.62536249 Ry
     one-center paw contrib.   =     -12.32006139 Ry

     convergence has been achieved in   7 iterations

     Writing output data file diamond.save/

     init_run     :      0.36s CPU      0.31s WALL (       1 calls)
     electrons    :      3.73s CPU      1.60s WALL (       1 calls)

     Called by init_run:
     wfcinit      :      0.17s CPU      0.12s WALL (       1 calls)
     potinit      :      0.05s CPU      0.05s WALL (       1 calls)
     hinit0       :      0.12s CPU      0.12s WALL (       1 calls)

     Called by electrons:
     c_bands      :      1.85s CPU      0.79s WALL (       7 calls)
     sum_band     :      0.54s CPU      0.22s WALL (       7 calls)
     v_of_rho     :      0.26s CPU      0.12s WALL (       8 calls)
     newd         :      0.04s CPU      0.04s WALL (       8 calls)
     PAW_pot      :      1.08s CPU      0.48s WALL (       8 calls)
     mix_rho      :      0.03s CPU      0.01s WALL (       7 calls)

     Called by c_bands:
     init_us_2    :      0.06s CPU      0.02s WALL (     120 calls)
     cegterg      :      1.73s CPU      0.75s WALL (      56 calls)

     Called by sum_band:
     sum_band:bec :      0.00s CPU      0.00s WALL (      56 calls)
     addusdens    :      0.09s CPU      0.03s WALL (       7 calls)

     Called by *egterg:
     h_psi        :      1.78s CPU      0.81s WALL (     186 calls)
     s_psi        :      0.02s CPU      0.01s WALL (     186 calls)
     g_psi        :      0.01s CPU      0.00s WALL (     122 calls)
     cdiaghg      :      0.02s CPU      0.01s WALL (     178 calls)

     Called by h_psi:
     h_psi:pot    :      1.77s CPU      0.81s WALL (     186 calls)
     h_psi:calbec :      0.21s CPU      0.18s WALL (     186 calls)
     vloc_psi     :      1.55s CPU      0.62s WALL (     186 calls)
     add_vuspsi   :      0.01s CPU      0.01s WALL (     186 calls)

     General routines
     calbec       :      0.28s CPU      0.23s WALL (     242 calls)
     fft          :      0.19s CPU      0.09s WALL (      88 calls)
     ffts         :      0.02s CPU      0.01s WALL (       7 calls)
     fftw         :      1.67s CPU      0.67s WALL (    1592 calls)

     Parallel routines

     PWSCF        :      4.28s CPU      2.09s WALL


   This run was terminated on:  20:22:15  12May2023            

=------------------------------------------------------------------------------=
   JOB DONE.
=------------------------------------------------------------------------------=
