
     Program PWSCF v.6.4.1 starts on 12May2023 at 20:22:18 

     This program is part of the open-source Quantum ESPRESSO suite
     for quantum simulation of materials; please cite
         "P. Giannozzi et al., J. Phys.:Condens. Matter 21 395502 (2009);
         "P. Giannozzi et al., J. Phys.:Condens. Matter 29 465901 (2017);
          URL http://www.quantum-espresso.org", 
     in publications or presentations arising from this work. More details at
     http://www.quantum-espresso.org/quote

     Parallel version (MPI), running on     1 processors

     MPI processes distributed on     1 nodes
     Waiting for input...
     Reading input from standard input

     Current dimensions of program PWSCF are:
     Max number of different atomic species (ntypx) = 10
     Max number of k-points (npk) =  40000
     Max angular momentum in pseudopotentials (lmaxx) =  3
               file C.pbe-n-kjpaw_psl.1.0.0.UPF: wavefunction(s)  2S 2P renormalized

     Subspace diagonalization in iterative solution of the eigenvalue problem:
     a serial algorithm will be used


     G-vector sticks info
     --------------------
     sticks:   dense  smooth     PW     G-vecs:    dense   smooth      PW
     Sum         649     649    199                10849    10849    1807



     bravais-lattice index     =            2
     lattice parameter (alat)  =       7.2000  a.u.
     unit-cell volume          =      93.3120 (a.u.)^3
     number of atoms/cell      =            2
     number of atomic types    =            1
     number of electrons       =         8.00
     number of Kohn-Sham states=            4
     kinetic-energy cutoff     =      90.0000  Ry
     charge density cutoff     =     360.0000  Ry
     convergence threshold     =      1.0E-08
     mixing beta               =       0.2000
     number of iterations used =            8  plain     mixing
     Exchange-correlation      = SLA PW PBX PBC ( 1  4  3  4 0 0)

     celldm(1)=   7.200000  celldm(2)=   0.000000  celldm(3)=   0.000000
     celldm(4)=   0.000000  celldm(5)=   0.000000  celldm(6)=   0.000000

     crystal axes: (cart. coord. in units of alat)
               a(1) = (  -0.500000   0.000000   0.500000 )  
               a(2) = (   0.000000   0.500000   0.500000 )  
               a(3) = (  -0.500000   0.500000   0.000000 )  

     reciprocal axes: (cart. coord. in units 2 pi/alat)
               b(1) = ( -1.000000 -1.000000  1.000000 )  
               b(2) = (  1.000000  1.000000  1.000000 )  
               b(3) = ( -1.000000  1.000000 -1.000000 )  


     PseudoPot. # 1 for C  read from file:
     ../../pseudo/C.pbe-n-kjpaw_psl.1.0.0.UPF
     MD5 check sum: 5f16ad9a65e90284d1d834d4ab3b0f7d
     Pseudo is Projector augmented-wave + core cor, Zval =  4.0
     Generated using "atomic" code by A. Dal Corso v.6.3
     Shape of augmentation charge: PSQ
     Using radial grid of 1073 points,  4 beta functions with: 
                l(1) =   0
                l(2) =   0
                l(3) =   1
                l(4) =   1
     Q(r) pseudized with 0 coefficients 


     atomic species   valence    mass     pseudopotential
        C              4.00    12.00000     C ( 1.00)

     48 Sym. Ops., with inversion, found (36 have fractional translation)



   Cartesian axes

     site n.     atom                  positions (alat units)
         1           C   tau(   1) = (  -0.1250000   0.1250000   0.1250000  )
         2           C   tau(   2) = (  -0.8750000   0.8750000   0.8750000  )

     number of k points=     8
                       cart. coord. in units 2pi/alat
        k(    1) = (   0.0000000   0.0000000   0.0000000), wk =   0.0312500
        k(    2) = (  -0.2500000   0.2500000  -0.2500000), wk =   0.2500000
        k(    3) = (   0.5000000  -0.5000000   0.5000000), wk =   0.1250000
        k(    4) = (   0.0000000   0.5000000   0.0000000), wk =   0.1875000
        k(    5) = (   0.7500000  -0.2500000   0.7500000), wk =   0.7500000
        k(    6) = (   0.5000000   0.0000000   0.5000000), wk =   0.3750000
        k(    7) = (   0.0000000  -1.0000000   0.0000000), wk =   0.0937500
        k(    8) = (  -0.5000000  -1.0000000   0.0000000), wk =   0.1875000

     Dense  grid:    10849 G-vectors     FFT dimensions: (  32,  32,  32)

     Estimated max dynamical RAM per process >      15.78 MB

     Check: negative core charge=   -0.000012

     Initial potential from superposition of free atoms

     starting charge    7.99992, renormalised to    8.00000
     Starting wfcs are    8 randomized atomic wfcs
     Checking if some PAW data can be deallocated... 

     total cpu time spent up to now is        0.4 secs

     Self-consistent Calculation

     iteration #  1     ecut=    90.00 Ry     beta= 0.20
     Davidson diagonalization with overlap
     ethr =  1.00E-04,  avg # of iterations =  3.9

     total cpu time spent up to now is        0.6 secs

     total energy              =     -36.83358680 Ry
     Harris-Foulkes estimate   =     -36.84537685 Ry
     estimated scf accuracy    <       0.07531788 Ry

     iteration #  2     ecut=    90.00 Ry     beta= 0.20
     Davidson diagonalization with overlap
     ethr =  9.41E-04,  avg # of iterations =  1.0

     total cpu time spent up to now is        0.7 secs

     total energy              =     -36.81810491 Ry
     Harris-Foulkes estimate   =     -36.83402231 Ry
     estimated scf accuracy    <       0.04306010 Ry

     iteration #  3     ecut=    90.00 Ry     beta= 0.20
     Davidson diagonalization with overlap
     ethr =  5.38E-04,  avg # of iterations =  1.4

     total cpu time spent up to now is        0.8 secs

     total energy              =     -36.82153747 Ry
     Harris-Foulkes estimate   =     -36.82155089 Ry
     estimated scf accuracy    <       0.00054441 Ry

     iteration #  4     ecut=    90.00 Ry     beta= 0.20
     Davidson diagonalization with overlap
     ethr =  6.81E-06,  avg # of iterations =  2.2

     total cpu time spent up to now is        0.9 secs

     total energy              =     -36.82170666 Ry
     Harris-Foulkes estimate   =     -36.82171022 Ry
     estimated scf accuracy    <       0.00001348 Ry

     iteration #  5     ecut=    90.00 Ry     beta= 0.20
     Davidson diagonalization with overlap
     ethr =  1.68E-07,  avg # of iterations =  2.5

     total cpu time spent up to now is        1.1 secs

     total energy              =     -36.82171131 Ry
     Harris-Foulkes estimate   =     -36.82171091 Ry
     estimated scf accuracy    <       0.00000059 Ry

     iteration #  6     ecut=    90.00 Ry     beta= 0.20
     Davidson diagonalization with overlap
     ethr =  7.33E-09,  avg # of iterations =  2.2

     total cpu time spent up to now is        1.2 secs

     total energy              =     -36.82171189 Ry
     Harris-Foulkes estimate   =     -36.82171139 Ry
     estimated scf accuracy    <       0.00000027 Ry

     iteration #  7     ecut=    90.00 Ry     beta= 0.20
     Davidson diagonalization with overlap
     ethr =  3.40E-09,  avg # of iterations =  2.0

     total cpu time spent up to now is        1.3 secs

     total energy              =     -36.82171194 Ry
     Harris-Foulkes estimate   =     -36.82171195 Ry
     estimated scf accuracy    <       0.00000002 Ry

     iteration #  8     ecut=    90.00 Ry     beta= 0.20
     Davidson diagonalization with overlap
     ethr =  3.02E-10,  avg # of iterations =  2.0

     total cpu time spent up to now is        1.5 secs

     End of self-consistent calculation

          k = 0.0000 0.0000 0.0000 (  1363 PWs)   bands (ev):

    -8.9375  10.0707  10.0707  10.0707

          k =-0.2500 0.2500-0.2500 (  1345 PWs)   bands (ev):

    -7.4540   4.3211   8.6364   8.6364

          k = 0.5000-0.5000 0.5000 (  1350 PWs)   bands (ev):

    -4.2049  -1.3163   7.7416   7.7416

          k = 0.0000 0.5000 0.0000 (  1331 PWs)   bands (ev):

    -6.9567   5.7322   6.7024   6.7024

          k = 0.7500-0.2500 0.7500 (  1340 PWs)   bands (ev):

    -3.8067   0.5586   4.3212   6.0546

          k = 0.5000 0.0000 0.5000 (  1340 PWs)   bands (ev):

    -5.1045   2.2432   3.7440   7.5841

          k = 0.0000-1.0000 0.0000 (  1362 PWs)   bands (ev):

    -1.4275  -1.4275   4.8718   4.8718

          k =-0.5000-1.0000 0.0000 (  1348 PWs)   bands (ev):

    -0.9081  -0.9081   3.3076   3.3076

     highest occupied level (ev):    10.0707

!    total energy              =     -36.82171194 Ry
     Harris-Foulkes estimate   =     -36.82171194 Ry
     estimated scf accuracy    <          6.0E-09 Ry

     total all-electron energy =      -152.349906 Ry

     The total energy is the sum of the following terms:

     one-electron contribution =       6.33202918 Ry
     hartree contribution      =       2.17299956 Ry
     xc contribution           =      -9.06680942 Ry
     ewald contribution        =     -23.94132464 Ry
     one-center paw contrib.   =     -12.31860662 Ry

     convergence has been achieved in   8 iterations

     Writing output data file diamond.save/

     init_run     :      0.28s CPU      0.23s WALL (       1 calls)
     electrons    :      2.71s CPU      1.05s WALL (       1 calls)

     Called by init_run:
     wfcinit      :      0.07s CPU      0.03s WALL (       1 calls)
     potinit      :      0.05s CPU      0.05s WALL (       1 calls)
     hinit0       :      0.13s CPU      0.13s WALL (       1 calls)

     Called by electrons:
     c_bands      :      0.87s CPU      0.32s WALL (       8 calls)
     sum_band     :      0.31s CPU      0.11s WALL (       8 calls)
     v_of_rho     :      0.18s CPU      0.08s WALL (       9 calls)
     newd         :      0.12s CPU      0.05s WALL (       9 calls)
     PAW_pot      :      1.24s CPU      0.54s WALL (       9 calls)
     mix_rho      :      0.03s CPU      0.01s WALL (       8 calls)

     Called by c_bands:
     init_us_2    :      0.08s CPU      0.03s WALL (     136 calls)
     cegterg      :      0.74s CPU      0.27s WALL (      64 calls)

     Called by sum_band:
     sum_band:bec :      0.00s CPU      0.00s WALL (      64 calls)
     addusdens    :      0.07s CPU      0.03s WALL (       8 calls)

     Called by *egterg:
     h_psi        :      0.67s CPU      0.24s WALL (     210 calls)
     s_psi        :      0.02s CPU      0.01s WALL (     210 calls)
     g_psi        :      0.01s CPU      0.00s WALL (     138 calls)
     cdiaghg      :      0.02s CPU      0.01s WALL (     202 calls)

     Called by h_psi:
     h_psi:pot    :      0.66s CPU      0.24s WALL (     210 calls)
     h_psi:calbec :      0.06s CPU      0.02s WALL (     210 calls)
     vloc_psi     :      0.58s CPU      0.21s WALL (     210 calls)
     add_vuspsi   :      0.02s CPU      0.01s WALL (     210 calls)

     General routines
     calbec       :      0.09s CPU      0.03s WALL (     274 calls)
     fft          :      0.03s CPU      0.01s WALL (      99 calls)
     ffts         :      0.00s CPU      0.00s WALL (       8 calls)
     fftw         :      0.49s CPU      0.17s WALL (    1848 calls)

     Parallel routines

     PWSCF        :      3.19s CPU      1.47s WALL


   This run was terminated on:  20:22:20  12May2023            

=------------------------------------------------------------------------------=
   JOB DONE.
=------------------------------------------------------------------------------=
