
     Program PWSCF v.6.4.1 starts on 12May2023 at 20:21: 1 

     This program is part of the open-source Quantum ESPRESSO suite
     for quantum simulation of materials; please cite
         "P. Giannozzi et al., J. Phys.:Condens. Matter 21 395502 (2009);
         "P. Giannozzi et al., J. Phys.:Condens. Matter 29 465901 (2017);
          URL http://www.quantum-espresso.org", 
     in publications or presentations arising from this work. More details at
     http://www.quantum-espresso.org/quote

     Parallel version (MPI), running on     1 processors

     MPI processes distributed on     1 nodes
     Waiting for input...
     Reading input from standard input

     Current dimensions of program PWSCF are:
     Max number of different atomic species (ntypx) = 10
     Max number of k-points (npk) =  40000
     Max angular momentum in pseudopotentials (lmaxx) =  3
               file C.pbe-n-kjpaw_psl.1.0.0.UPF: wavefunction(s)  2S 2P renormalized

     Subspace diagonalization in iterative solution of the eigenvalue problem:
     a serial algorithm will be used


     G-vector sticks info
     --------------------
     sticks:   dense  smooth     PW     G-vecs:    dense   smooth      PW
     Sum         253     253     85                 2741     2741     537



     bravais-lattice index     =            2
     lattice parameter (alat)  =       4.6000  a.u.
     unit-cell volume          =      24.3340 (a.u.)^3
     number of atoms/cell      =            2
     number of atomic types    =            1
     number of electrons       =         8.00
     number of Kohn-Sham states=            4
     kinetic-energy cutoff     =      90.0000  Ry
     charge density cutoff     =     360.0000  Ry
     convergence threshold     =      1.0E-08
     mixing beta               =       0.2000
     number of iterations used =            8  plain     mixing
     Exchange-correlation      = SLA PW PBX PBC ( 1  4  3  4 0 0)

     celldm(1)=   4.600000  celldm(2)=   0.000000  celldm(3)=   0.000000
     celldm(4)=   0.000000  celldm(5)=   0.000000  celldm(6)=   0.000000

     crystal axes: (cart. coord. in units of alat)
               a(1) = (  -0.500000   0.000000   0.500000 )  
               a(2) = (   0.000000   0.500000   0.500000 )  
               a(3) = (  -0.500000   0.500000   0.000000 )  

     reciprocal axes: (cart. coord. in units 2 pi/alat)
               b(1) = ( -1.000000 -1.000000  1.000000 )  
               b(2) = (  1.000000  1.000000  1.000000 )  
               b(3) = ( -1.000000  1.000000 -1.000000 )  


     PseudoPot. # 1 for C  read from file:
     ../../pseudo/C.pbe-n-kjpaw_psl.1.0.0.UPF
     MD5 check sum: 5f16ad9a65e90284d1d834d4ab3b0f7d
     Pseudo is Projector augmented-wave + core cor, Zval =  4.0
     Generated using "atomic" code by A. Dal Corso v.6.3
     Shape of augmentation charge: PSQ
     Using radial grid of 1073 points,  4 beta functions with: 
                l(1) =   0
                l(2) =   0
                l(3) =   1
                l(4) =   1
     Q(r) pseudized with 0 coefficients 


     atomic species   valence    mass     pseudopotential
        C              4.00    12.00000     C ( 1.00)

     48 Sym. Ops., with inversion, found (36 have fractional translation)



   Cartesian axes

     site n.     atom                  positions (alat units)
         1           C   tau(   1) = (  -0.1250000   0.1250000   0.1250000  )
         2           C   tau(   2) = (  -0.8750000   0.8750000   0.8750000  )

     number of k points=     8
                       cart. coord. in units 2pi/alat
        k(    1) = (   0.0000000   0.0000000   0.0000000), wk =   0.0312500
        k(    2) = (  -0.2500000   0.2500000  -0.2500000), wk =   0.2500000
        k(    3) = (   0.5000000  -0.5000000   0.5000000), wk =   0.1250000
        k(    4) = (   0.0000000   0.5000000   0.0000000), wk =   0.1875000
        k(    5) = (   0.7500000  -0.2500000   0.7500000), wk =   0.7500000
        k(    6) = (   0.5000000   0.0000000   0.5000000), wk =   0.3750000
        k(    7) = (   0.0000000  -1.0000000   0.0000000), wk =   0.0937500
        k(    8) = (  -0.5000000  -1.0000000   0.0000000), wk =   0.1875000

     Dense  grid:     2741 G-vectors     FFT dimensions: (  20,  20,  20)

     Estimated max dynamical RAM per process >       4.17 MB

     Check: negative core charge=   -0.000009

     Initial potential from superposition of free atoms

     starting charge    7.99992, renormalised to    8.00000
     Starting wfcs are    8 randomized atomic wfcs
     Checking if some PAW data can be deallocated... 

     total cpu time spent up to now is        0.4 secs

     Self-consistent Calculation

     iteration #  1     ecut=    90.00 Ry     beta= 0.20
     Davidson diagonalization with overlap
     ethr =  1.00E-04,  avg # of iterations =  3.6

     total cpu time spent up to now is        0.6 secs

     total energy              =     -34.29723913 Ry
     Harris-Foulkes estimate   =     -34.46013218 Ry
     estimated scf accuracy    <       0.60658261 Ry

     iteration #  2     ecut=    90.00 Ry     beta= 0.20
     Davidson diagonalization with overlap
     ethr =  7.58E-03,  avg # of iterations =  1.0

     total cpu time spent up to now is        0.7 secs

     total energy              =     -34.07705422 Ry
     Harris-Foulkes estimate   =     -34.30140172 Ry
     estimated scf accuracy    <       0.34363325 Ry

     iteration #  3     ecut=    90.00 Ry     beta= 0.20
     Davidson diagonalization with overlap
     ethr =  4.30E-03,  avg # of iterations =  2.0

     total cpu time spent up to now is        0.7 secs

     total energy              =     -34.11492630 Ry
     Harris-Foulkes estimate   =     -34.11496245 Ry
     estimated scf accuracy    <       0.00031515 Ry

     iteration #  4     ecut=    90.00 Ry     beta= 0.20
     Davidson diagonalization with overlap
     ethr =  3.94E-06,  avg # of iterations =  3.1

     total cpu time spent up to now is        0.8 secs

     total energy              =     -34.11601666 Ry
     Harris-Foulkes estimate   =     -34.11603089 Ry
     estimated scf accuracy    <       0.00016986 Ry

     iteration #  5     ecut=    90.00 Ry     beta= 0.20
     Davidson diagonalization with overlap
     ethr =  2.12E-06,  avg # of iterations =  2.0

     total cpu time spent up to now is        0.9 secs

     total energy              =     -34.11603112 Ry
     Harris-Foulkes estimate   =     -34.11604241 Ry
     estimated scf accuracy    <       0.00005514 Ry

     iteration #  6     ecut=    90.00 Ry     beta= 0.20
     Davidson diagonalization with overlap
     ethr =  6.89E-07,  avg # of iterations =  1.0

     total cpu time spent up to now is        1.0 secs

     total energy              =     -34.11603147 Ry
     Harris-Foulkes estimate   =     -34.11603319 Ry
     estimated scf accuracy    <       0.00000525 Ry

     iteration #  7     ecut=    90.00 Ry     beta= 0.20
     Davidson diagonalization with overlap
     ethr =  6.57E-08,  avg # of iterations =  1.6

     total cpu time spent up to now is        1.1 secs

     total energy              =     -34.11603195 Ry
     Harris-Foulkes estimate   =     -34.11603193 Ry
     estimated scf accuracy    <       0.00000003 Ry

     iteration #  8     ecut=    90.00 Ry     beta= 0.20
     Davidson diagonalization with overlap
     ethr =  3.21E-10,  avg # of iterations =  2.9

     total cpu time spent up to now is        1.2 secs

     total energy              =     -34.11603195 Ry
     Harris-Foulkes estimate   =     -34.11603196 Ry
     estimated scf accuracy    <       0.00000005 Ry

     iteration #  9     ecut=    90.00 Ry     beta= 0.20
     Davidson diagonalization with overlap
     ethr =  3.21E-10,  avg # of iterations =  1.0

     total cpu time spent up to now is        1.3 secs

     End of self-consistent calculation

          k = 0.0000 0.0000 0.0000 (   339 PWs)   bands (ev):

     2.5893  46.7691  46.7691  46.7691

          k =-0.2500 0.2500-0.2500 (   350 PWs)   bands (ev):

     5.6287  31.5406  41.7400  41.7400

          k = 0.5000-0.5000 0.5000 (   344 PWs)   bands (ev):

    12.0246  19.4031  39.2882  39.2882

          k = 0.0000 0.5000 0.0000 (   343 PWs)   bands (ev):

     6.8108  34.6405  34.6405  39.6141

          k = 0.7500-0.2500 0.7500 (   354 PWs)   bands (ev):

    13.7294  23.3432  31.4555  32.9271

          k = 0.5000 0.0000 0.5000 (   343 PWs)   bands (ev):

    10.6586  28.0003  28.6005  38.3095

          k = 0.0000-1.0000 0.0000 (   342 PWs)   bands (ev):

    20.1588  20.1588  29.1288  29.1288

          k =-0.5000-1.0000 0.0000 (   360 PWs)   bands (ev):

    21.6474  21.6474  25.9141  25.9141

     highest occupied level (ev):    46.7691

!    total energy              =     -34.11603195 Ry
     Harris-Foulkes estimate   =     -34.11603195 Ry
     estimated scf accuracy    <          7.6E-09 Ry

     total all-electron energy =      -149.644226 Ry

     The total energy is the sum of the following terms:

     one-electron contribution =      26.80699523 Ry
     hartree contribution      =       1.02188025 Ry
     xc contribution           =     -12.00330032 Ry
     ewald contribution        =     -37.47337770 Ry
     one-center paw contrib.   =     -12.46822942 Ry

     convergence has been achieved in   9 iterations

     Writing output data file diamond.save/

     init_run     :      0.27s CPU      0.24s WALL (       1 calls)
     electrons    :      1.92s CPU      0.84s WALL (       1 calls)

     Called by init_run:
     wfcinit      :      0.11s CPU      0.09s WALL (       1 calls)
     potinit      :      0.04s CPU      0.04s WALL (       1 calls)
     hinit0       :      0.10s CPU      0.10s WALL (       1 calls)

     Called by electrons:
     c_bands      :      0.39s CPU      0.17s WALL (       9 calls)
     sum_band     :      0.09s CPU      0.06s WALL (       9 calls)
     v_of_rho     :      0.05s CPU      0.02s WALL (      10 calls)
     newd         :      0.05s CPU      0.02s WALL (      10 calls)
     PAW_pot      :      1.38s CPU      0.62s WALL (      10 calls)
     mix_rho      :      0.01s CPU      0.00s WALL (       9 calls)

     Called by c_bands:
     init_us_2    :      0.02s CPU      0.01s WALL (     152 calls)
     cegterg      :      0.35s CPU      0.15s WALL (      72 calls)

     Called by sum_band:
     sum_band:bec :      0.00s CPU      0.00s WALL (      72 calls)
     addusdens    :      0.04s CPU      0.04s WALL (       9 calls)

     Called by *egterg:
     h_psi        :      0.25s CPU      0.14s WALL (     226 calls)
     s_psi        :      0.04s CPU      0.01s WALL (     226 calls)
     g_psi        :      0.00s CPU      0.00s WALL (     146 calls)
     cdiaghg      :      0.12s CPU      0.07s WALL (     218 calls)

     Called by h_psi:
     h_psi:pot    :      0.25s CPU      0.14s WALL (     226 calls)
     h_psi:calbec :      0.11s CPU      0.09s WALL (     226 calls)
     vloc_psi     :      0.13s CPU      0.05s WALL (     226 calls)
     add_vuspsi   :      0.01s CPU      0.00s WALL (     226 calls)

     General routines
     calbec       :      0.11s CPU      0.09s WALL (     298 calls)
     fft          :      0.01s CPU      0.00s WALL (     110 calls)
     ffts         :      0.00s CPU      0.00s WALL (       9 calls)
     fftw         :      0.10s CPU      0.04s WALL (    1998 calls)

     Parallel routines

     PWSCF        :      2.37s CPU      1.26s WALL


   This run was terminated on:  20:21: 2  12May2023            

=------------------------------------------------------------------------------=
   JOB DONE.
=------------------------------------------------------------------------------=
