
     Program PWSCF v.6.4.1 starts on 12May2023 at 20:20:51 

     This program is part of the open-source Quantum ESPRESSO suite
     for quantum simulation of materials; please cite
         "P. Giannozzi et al., J. Phys.:Condens. Matter 21 395502 (2009);
         "P. Giannozzi et al., J. Phys.:Condens. Matter 29 465901 (2017);
          URL http://www.quantum-espresso.org", 
     in publications or presentations arising from this work. More details at
     http://www.quantum-espresso.org/quote

     Parallel version (MPI), running on     1 processors

     MPI processes distributed on     1 nodes
     Waiting for input...
     Reading input from standard input

     Current dimensions of program PWSCF are:
     Max number of different atomic species (ntypx) = 10
     Max number of k-points (npk) =  40000
     Max angular momentum in pseudopotentials (lmaxx) =  3
               file C.pbe-n-kjpaw_psl.1.0.0.UPF: wavefunction(s)  2S 2P renormalized

     Subspace diagonalization in iterative solution of the eigenvalue problem:
     a serial algorithm will be used


     G-vector sticks info
     --------------------
     sticks:   dense  smooth     PW     G-vecs:    dense   smooth      PW
     Sum         211     211     73                 2109     2109     411



     bravais-lattice index     =            2
     lattice parameter (alat)  =       4.2000  a.u.
     unit-cell volume          =      18.5220 (a.u.)^3
     number of atoms/cell      =            2
     number of atomic types    =            1
     number of electrons       =         8.00
     number of Kohn-Sham states=            4
     kinetic-energy cutoff     =      90.0000  Ry
     charge density cutoff     =     360.0000  Ry
     convergence threshold     =      1.0E-08
     mixing beta               =       0.2000
     number of iterations used =            8  plain     mixing
     Exchange-correlation      = SLA PW PBX PBC ( 1  4  3  4 0 0)

     celldm(1)=   4.200000  celldm(2)=   0.000000  celldm(3)=   0.000000
     celldm(4)=   0.000000  celldm(5)=   0.000000  celldm(6)=   0.000000

     crystal axes: (cart. coord. in units of alat)
               a(1) = (  -0.500000   0.000000   0.500000 )  
               a(2) = (   0.000000   0.500000   0.500000 )  
               a(3) = (  -0.500000   0.500000   0.000000 )  

     reciprocal axes: (cart. coord. in units 2 pi/alat)
               b(1) = ( -1.000000 -1.000000  1.000000 )  
               b(2) = (  1.000000  1.000000  1.000000 )  
               b(3) = ( -1.000000  1.000000 -1.000000 )  


     PseudoPot. # 1 for C  read from file:
     ../../pseudo/C.pbe-n-kjpaw_psl.1.0.0.UPF
     MD5 check sum: 5f16ad9a65e90284d1d834d4ab3b0f7d
     Pseudo is Projector augmented-wave + core cor, Zval =  4.0
     Generated using "atomic" code by A. Dal Corso v.6.3
     Shape of augmentation charge: PSQ
     Using radial grid of 1073 points,  4 beta functions with: 
                l(1) =   0
                l(2) =   0
                l(3) =   1
                l(4) =   1
     Q(r) pseudized with 0 coefficients 


     atomic species   valence    mass     pseudopotential
        C              4.00    12.00000     C ( 1.00)

     48 Sym. Ops., with inversion, found (36 have fractional translation)



   Cartesian axes

     site n.     atom                  positions (alat units)
         1           C   tau(   1) = (  -0.1250000   0.1250000   0.1250000  )
         2           C   tau(   2) = (  -0.8750000   0.8750000   0.8750000  )

     number of k points=     8
                       cart. coord. in units 2pi/alat
        k(    1) = (   0.0000000   0.0000000   0.0000000), wk =   0.0312500
        k(    2) = (  -0.2500000   0.2500000  -0.2500000), wk =   0.2500000
        k(    3) = (   0.5000000  -0.5000000   0.5000000), wk =   0.1250000
        k(    4) = (   0.0000000   0.5000000   0.0000000), wk =   0.1875000
        k(    5) = (   0.7500000  -0.2500000   0.7500000), wk =   0.7500000
        k(    6) = (   0.5000000   0.0000000   0.5000000), wk =   0.3750000
        k(    7) = (   0.0000000  -1.0000000   0.0000000), wk =   0.0937500
        k(    8) = (  -0.5000000  -1.0000000   0.0000000), wk =   0.1875000

     Dense  grid:     2109 G-vectors     FFT dimensions: (  18,  18,  18)

     Estimated max dynamical RAM per process >       3.23 MB

     Check: negative core charge=   -0.000005

     Initial potential from superposition of free atoms

     starting charge    7.99992, renormalised to    8.00000
     Starting wfcs are    8 randomized atomic wfcs
     Checking if some PAW data can be deallocated... 

     total cpu time spent up to now is        0.3 secs

     Self-consistent Calculation

     iteration #  1     ecut=    90.00 Ry     beta= 0.20
     Davidson diagonalization with overlap
     ethr =  1.00E-04,  avg # of iterations =  3.5

     total cpu time spent up to now is        0.5 secs

     total energy              =     -32.28782781 Ry
     Harris-Foulkes estimate   =     -32.49292786 Ry
     estimated scf accuracy    <       0.69802223 Ry

     iteration #  2     ecut=    90.00 Ry     beta= 0.20
     Davidson diagonalization with overlap
     ethr =  8.73E-03,  avg # of iterations =  1.0

     total cpu time spent up to now is        0.6 secs

     total energy              =     -32.01704065 Ry
     Harris-Foulkes estimate   =     -32.29272275 Ry
     estimated scf accuracy    <       0.39674969 Ry

     iteration #  3     ecut=    90.00 Ry     beta= 0.20
     Davidson diagonalization with overlap
     ethr =  4.96E-03,  avg # of iterations =  2.0

     total cpu time spent up to now is        0.7 secs

     total energy              =     -32.06122135 Ry
     Harris-Foulkes estimate   =     -32.06128476 Ry
     estimated scf accuracy    <       0.00027320 Ry

     iteration #  4     ecut=    90.00 Ry     beta= 0.20
     Davidson diagonalization with overlap
     ethr =  3.42E-06,  avg # of iterations =  3.0

     total cpu time spent up to now is        0.8 secs

     total energy              =     -32.06240362 Ry
     Harris-Foulkes estimate   =     -32.06243388 Ry
     estimated scf accuracy    <       0.00014797 Ry

     iteration #  5     ecut=    90.00 Ry     beta= 0.20
     Davidson diagonalization with overlap
     ethr =  1.85E-06,  avg # of iterations =  2.0

     total cpu time spent up to now is        0.9 secs

     total energy              =     -32.06240879 Ry
     Harris-Foulkes estimate   =     -32.06242513 Ry
     estimated scf accuracy    <       0.00004235 Ry

     iteration #  6     ecut=    90.00 Ry     beta= 0.20
     Davidson diagonalization with overlap
     ethr =  5.29E-07,  avg # of iterations =  1.0

     total cpu time spent up to now is        1.0 secs

     total energy              =     -32.06240937 Ry
     Harris-Foulkes estimate   =     -32.06241089 Ry
     estimated scf accuracy    <       0.00000404 Ry

     iteration #  7     ecut=    90.00 Ry     beta= 0.20
     Davidson diagonalization with overlap
     ethr =  5.05E-08,  avg # of iterations =  1.4

     total cpu time spent up to now is        1.1 secs

     total energy              =     -32.06240965 Ry
     Harris-Foulkes estimate   =     -32.06240965 Ry
     estimated scf accuracy    <       0.00000005 Ry

     iteration #  8     ecut=    90.00 Ry     beta= 0.20
     Davidson diagonalization with overlap
     ethr =  6.19E-10,  avg # of iterations =  2.6

     total cpu time spent up to now is        1.2 secs

     total energy              =     -32.06240968 Ry
     Harris-Foulkes estimate   =     -32.06240969 Ry
     estimated scf accuracy    <       0.00000004 Ry

     iteration #  9     ecut=    90.00 Ry     beta= 0.20
     Davidson diagonalization with overlap
     ethr =  5.19E-10,  avg # of iterations =  1.1

     total cpu time spent up to now is        1.3 secs

     End of self-consistent calculation

          k = 0.0000 0.0000 0.0000 (   283 PWs)   bands (ev):

     7.9741  60.0338  60.0338  60.0338

          k =-0.2500 0.2500-0.2500 (   274 PWs)   bands (ev):

    11.0596  41.7030  53.6614  53.6614

          k = 0.5000-0.5000 0.5000 (   266 PWs)   bands (ev):

    16.6559  29.2569  50.7511  50.7511

          k = 0.0000 0.5000 0.0000 (   258 PWs)   bands (ev):

    12.4688  44.6351  44.6351  51.7565

          k = 0.7500-0.2500 0.7500 (   265 PWs)   bands (ev):

    19.4340  32.3325  41.6502  42.5829

          k = 0.5000 0.0000 0.5000 (   264 PWs)   bands (ev):

    16.2029  37.0975  38.8036  49.3859

          k = 0.0000-1.0000 0.0000 (   254 PWs)   bands (ev):

    27.6983  27.6983  37.8598  37.8598

          k =-0.5000-1.0000 0.0000 (   264 PWs)   bands (ev):

    27.9704  27.9704  36.2592  36.2592

     highest occupied level (ev):    60.0338

!    total energy              =     -32.06240968 Ry
     Harris-Foulkes estimate   =     -32.06240968 Ry
     estimated scf accuracy    <          3.4E-09 Ry

     total all-electron energy =      -147.590604 Ry

     The total energy is the sum of the following terms:

     one-electron contribution =      33.51538186 Ry
     hartree contribution      =       0.84907959 Ry
     xc contribution           =     -12.85267768 Ry
     ewald contribution        =     -41.04227081 Ry
     one-center paw contrib.   =     -12.53192264 Ry

     convergence has been achieved in   9 iterations

     Writing output data file diamond.save/

     init_run     :      0.17s CPU      0.17s WALL (       1 calls)
     electrons    :      2.24s CPU      0.97s WALL (       1 calls)

     Called by init_run:
     wfcinit      :      0.03s CPU      0.01s WALL (       1 calls)
     potinit      :      0.05s CPU      0.05s WALL (       1 calls)
     hinit0       :      0.09s CPU      0.09s WALL (       1 calls)

     Called by electrons:
     c_bands      :      0.47s CPU      0.21s WALL (       9 calls)
     sum_band     :      0.13s CPU      0.05s WALL (       9 calls)
     v_of_rho     :      0.05s CPU      0.02s WALL (      10 calls)
     newd         :      0.05s CPU      0.03s WALL (      10 calls)
     PAW_pot      :      1.58s CPU      0.70s WALL (      10 calls)
     mix_rho      :      0.01s CPU      0.00s WALL (       9 calls)

     Called by c_bands:
     init_us_2    :      0.02s CPU      0.01s WALL (     152 calls)
     cegterg      :      0.43s CPU      0.19s WALL (      72 calls)

     Called by sum_band:
     sum_band:bec :      0.00s CPU      0.00s WALL (      72 calls)
     addusdens    :      0.02s CPU      0.01s WALL (       9 calls)

     Called by *egterg:
     h_psi        :      0.36s CPU      0.15s WALL (     221 calls)
     s_psi        :      0.01s CPU      0.01s WALL (     221 calls)
     g_psi        :      0.00s CPU      0.00s WALL (     141 calls)
     cdiaghg      :      0.05s CPU      0.03s WALL (     213 calls)

     Called by h_psi:
     h_psi:pot    :      0.36s CPU      0.15s WALL (     221 calls)
     h_psi:calbec :      0.01s CPU      0.00s WALL (     221 calls)
     vloc_psi     :      0.34s CPU      0.14s WALL (     221 calls)
     add_vuspsi   :      0.01s CPU      0.00s WALL (     221 calls)

     General routines
     calbec       :      0.02s CPU      0.01s WALL (     293 calls)
     fft          :      0.03s CPU      0.02s WALL (     110 calls)
     ffts         :      0.00s CPU      0.00s WALL (       9 calls)
     fftw         :      0.38s CPU      0.16s WALL (    1964 calls)

     Parallel routines

     PWSCF        :      2.61s CPU      1.32s WALL


   This run was terminated on:  20:20:53  12May2023            

=------------------------------------------------------------------------------=
   JOB DONE.
=------------------------------------------------------------------------------=
