
     Program PWSCF v.6.4.1 starts on 12May2023 at 20:21:39 

     This program is part of the open-source Quantum ESPRESSO suite
     for quantum simulation of materials; please cite
         "P. Giannozzi et al., J. Phys.:Condens. Matter 21 395502 (2009);
         "P. Giannozzi et al., J. Phys.:Condens. Matter 29 465901 (2017);
          URL http://www.quantum-espresso.org", 
     in publications or presentations arising from this work. More details at
     http://www.quantum-espresso.org/quote

     Parallel version (MPI), running on     1 processors

     MPI processes distributed on     1 nodes
     Waiting for input...
     Reading input from standard input

     Current dimensions of program PWSCF are:
     Max number of different atomic species (ntypx) = 10
     Max number of k-points (npk) =  40000
     Max angular momentum in pseudopotentials (lmaxx) =  3
               file C.pbe-n-kjpaw_psl.1.0.0.UPF: wavefunction(s)  2S 2P renormalized

     Subspace diagonalization in iterative solution of the eigenvalue problem:
     a serial algorithm will be used


     G-vector sticks info
     --------------------
     sticks:   dense  smooth     PW     G-vecs:    dense   smooth      PW
     Sum         439     439    139                 6231     6231    1067



     bravais-lattice index     =            2
     lattice parameter (alat)  =       6.0000  a.u.
     unit-cell volume          =      54.0000 (a.u.)^3
     number of atoms/cell      =            2
     number of atomic types    =            1
     number of electrons       =         8.00
     number of Kohn-Sham states=            4
     kinetic-energy cutoff     =      90.0000  Ry
     charge density cutoff     =     360.0000  Ry
     convergence threshold     =      1.0E-08
     mixing beta               =       0.2000
     number of iterations used =            8  plain     mixing
     Exchange-correlation      = SLA PW PBX PBC ( 1  4  3  4 0 0)

     celldm(1)=   6.000000  celldm(2)=   0.000000  celldm(3)=   0.000000
     celldm(4)=   0.000000  celldm(5)=   0.000000  celldm(6)=   0.000000

     crystal axes: (cart. coord. in units of alat)
               a(1) = (  -0.500000   0.000000   0.500000 )  
               a(2) = (   0.000000   0.500000   0.500000 )  
               a(3) = (  -0.500000   0.500000   0.000000 )  

     reciprocal axes: (cart. coord. in units 2 pi/alat)
               b(1) = ( -1.000000 -1.000000  1.000000 )  
               b(2) = (  1.000000  1.000000  1.000000 )  
               b(3) = ( -1.000000  1.000000 -1.000000 )  


     PseudoPot. # 1 for C  read from file:
     ../../pseudo/C.pbe-n-kjpaw_psl.1.0.0.UPF
     MD5 check sum: 5f16ad9a65e90284d1d834d4ab3b0f7d
     Pseudo is Projector augmented-wave + core cor, Zval =  4.0
     Generated using "atomic" code by A. Dal Corso v.6.3
     Shape of augmentation charge: PSQ
     Using radial grid of 1073 points,  4 beta functions with: 
                l(1) =   0
                l(2) =   0
                l(3) =   1
                l(4) =   1
     Q(r) pseudized with 0 coefficients 


     atomic species   valence    mass     pseudopotential
        C              4.00    12.00000     C ( 1.00)

     48 Sym. Ops., with inversion, found (36 have fractional translation)



   Cartesian axes

     site n.     atom                  positions (alat units)
         1           C   tau(   1) = (  -0.1250000   0.1250000   0.1250000  )
         2           C   tau(   2) = (  -0.8750000   0.8750000   0.8750000  )

     number of k points=     8
                       cart. coord. in units 2pi/alat
        k(    1) = (   0.0000000   0.0000000   0.0000000), wk =   0.0312500
        k(    2) = (  -0.2500000   0.2500000  -0.2500000), wk =   0.2500000
        k(    3) = (   0.5000000  -0.5000000   0.5000000), wk =   0.1250000
        k(    4) = (   0.0000000   0.5000000   0.0000000), wk =   0.1875000
        k(    5) = (   0.7500000  -0.2500000   0.7500000), wk =   0.7500000
        k(    6) = (   0.5000000   0.0000000   0.5000000), wk =   0.3750000
        k(    7) = (   0.0000000  -1.0000000   0.0000000), wk =   0.0937500
        k(    8) = (  -0.5000000  -1.0000000   0.0000000), wk =   0.1875000

     Dense  grid:     6231 G-vectors     FFT dimensions: (  30,  30,  30)

     Estimated max dynamical RAM per process >       9.76 MB

     Check: negative core charge=   -0.000012

     Initial potential from superposition of free atoms

     starting charge    7.99992, renormalised to    8.00000
     Starting wfcs are    8 randomized atomic wfcs
     Checking if some PAW data can be deallocated... 

     total cpu time spent up to now is        0.4 secs

     Self-consistent Calculation

     iteration #  1     ecut=    90.00 Ry     beta= 0.20
     Davidson diagonalization with overlap
     ethr =  1.00E-04,  avg # of iterations =  3.9

     total cpu time spent up to now is        0.6 secs

     total energy              =     -36.74080906 Ry
     Harris-Foulkes estimate   =     -36.79445732 Ry
     estimated scf accuracy    <       0.24336553 Ry

     iteration #  2     ecut=    90.00 Ry     beta= 0.20
     Davidson diagonalization with overlap
     ethr =  3.04E-03,  avg # of iterations =  1.0

     total cpu time spent up to now is        0.9 secs

     total energy              =     -36.66823563 Ry
     Harris-Foulkes estimate   =     -36.74241437 Ry
     estimated scf accuracy    <       0.13685325 Ry

     iteration #  3     ecut=    90.00 Ry     beta= 0.20
     Davidson diagonalization with overlap
     ethr =  1.71E-03,  avg # of iterations =  1.9

     total cpu time spent up to now is        1.1 secs

     total energy              =     -36.68237671 Ry
     Harris-Foulkes estimate   =     -36.68238639 Ry
     estimated scf accuracy    <       0.00042569 Ry

     iteration #  4     ecut=    90.00 Ry     beta= 0.20
     Davidson diagonalization with overlap
     ethr =  5.32E-06,  avg # of iterations =  2.9

     total cpu time spent up to now is        1.3 secs

     total energy              =     -36.68283544 Ry
     Harris-Foulkes estimate   =     -36.68283508 Ry
     estimated scf accuracy    <       0.00013060 Ry

     iteration #  5     ecut=    90.00 Ry     beta= 0.20
     Davidson diagonalization with overlap
     ethr =  1.63E-06,  avg # of iterations =  1.5

     total cpu time spent up to now is        1.5 secs

     total energy              =     -36.68284696 Ry
     Harris-Foulkes estimate   =     -36.68284675 Ry
     estimated scf accuracy    <       0.00000531 Ry

     iteration #  6     ecut=    90.00 Ry     beta= 0.20
     Davidson diagonalization with overlap
     ethr =  6.64E-08,  avg # of iterations =  1.9

     total cpu time spent up to now is        1.6 secs

     total energy              =     -36.68284666 Ry
     Harris-Foulkes estimate   =     -36.68284753 Ry
     estimated scf accuracy    <       0.00000327 Ry

     iteration #  7     ecut=    90.00 Ry     beta= 0.20
     Davidson diagonalization with overlap
     ethr =  4.08E-08,  avg # of iterations =  2.0

     total cpu time spent up to now is        1.8 secs

     total energy              =     -36.68284694 Ry
     Harris-Foulkes estimate   =     -36.68284695 Ry
     estimated scf accuracy    <       0.00000003 Ry

     iteration #  8     ecut=    90.00 Ry     beta= 0.20
     Davidson diagonalization with overlap
     ethr =  4.00E-10,  avg # of iterations =  2.1

     total cpu time spent up to now is        2.1 secs

     total energy              =     -36.68284695 Ry
     Harris-Foulkes estimate   =     -36.68284695 Ry
     estimated scf accuracy    <       0.00000003 Ry

     iteration #  9     ecut=    90.00 Ry     beta= 0.20
     Davidson diagonalization with overlap
     ethr =  3.57E-10,  avg # of iterations =  1.0

     total cpu time spent up to now is        2.5 secs

     End of self-consistent calculation

          k = 0.0000 0.0000 0.0000 (   749 PWs)   bands (ev):

    -6.1425  20.6590  20.6590  20.6590

          k =-0.2500 0.2500-0.2500 (   784 PWs)   bands (ev):

    -3.9893  12.1159  18.2108  18.2108

          k = 0.5000-0.5000 0.5000 (   778 PWs)   bands (ev):

     1.9715   2.7188  16.8184  16.8184

          k = 0.0000 0.5000 0.0000 (   769 PWs)   bands (ev):

    -3.2738  14.8306  14.8306  15.6060

          k = 0.7500-0.2500 0.7500 (   777 PWs)   bands (ev):

     1.5993   6.8927  11.8798  13.8494

          k = 0.5000 0.0000 0.5000 (   784 PWs)   bands (ev):

    -0.4684   9.8565  10.3565  16.4701

          k = 0.0000-1.0000 0.0000 (   790 PWs)   bands (ev):

     4.9679   4.9679  11.9006  11.9006

          k =-0.5000-1.0000 0.0000 (   772 PWs)   bands (ev):

     6.5219   6.5219   8.7866   8.7866

     highest occupied level (ev):    20.6590

!    total energy              =     -36.68284694 Ry
     Harris-Foulkes estimate   =     -36.68284695 Ry
     estimated scf accuracy    <          6.9E-09 Ry

     total all-electron energy =      -152.211041 Ry

     The total energy is the sum of the following terms:

     one-electron contribution =      12.80313012 Ry
     hartree contribution      =       1.62571877 Ry
     xc contribution           =     -10.03483259 Ry
     ewald contribution        =     -28.72958961 Ry
     one-center paw contrib.   =     -12.34727364 Ry

     convergence has been achieved in   9 iterations

     Writing output data file diamond.save/

     init_run     :      0.36s CPU      0.25s WALL (       1 calls)
     electrons    :      4.39s CPU      2.05s WALL (       1 calls)

     Called by init_run:
     wfcinit      :      0.17s CPU      0.06s WALL (       1 calls)
     potinit      :      0.05s CPU      0.05s WALL (       1 calls)
     hinit0       :      0.11s CPU      0.11s WALL (       1 calls)

     Called by electrons:
     c_bands      :      2.04s CPU      0.93s WALL (       9 calls)
     sum_band     :      0.55s CPU      0.25s WALL (       9 calls)
     v_of_rho     :      0.41s CPU      0.17s WALL (      10 calls)
     newd         :      0.11s CPU      0.10s WALL (      10 calls)
     PAW_pot      :      1.30s CPU      0.65s WALL (      10 calls)
     mix_rho      :      0.05s CPU      0.02s WALL (       9 calls)

     Called by c_bands:
     init_us_2    :      0.05s CPU      0.02s WALL (     152 calls)
     cegterg      :      1.94s CPU      0.90s WALL (      72 calls)

     Called by sum_band:
     sum_band:bec :      0.00s CPU      0.00s WALL (      72 calls)
     addusdens    :      0.06s CPU      0.03s WALL (       9 calls)

     Called by *egterg:
     h_psi        :      1.98s CPU      0.89s WALL (     225 calls)
     s_psi        :      0.03s CPU      0.02s WALL (     225 calls)
     g_psi        :      0.01s CPU      0.00s WALL (     145 calls)
     cdiaghg      :      0.02s CPU      0.01s WALL (     217 calls)

     Called by h_psi:
     h_psi:pot    :      1.98s CPU      0.89s WALL (     225 calls)
     h_psi:calbec :      0.26s CPU      0.21s WALL (     225 calls)
     vloc_psi     :      1.70s CPU      0.67s WALL (     225 calls)
     add_vuspsi   :      0.01s CPU      0.01s WALL (     225 calls)

     General routines
     calbec       :      0.36s CPU      0.27s WALL (     297 calls)
     fft          :      0.20s CPU      0.10s WALL (     110 calls)
     ffts         :      0.03s CPU      0.01s WALL (       9 calls)
     fftw         :      1.83s CPU      0.73s WALL (    1938 calls)

     Parallel routines

     PWSCF        :      4.92s CPU      2.48s WALL


   This run was terminated on:  20:21:41  12May2023            

=------------------------------------------------------------------------------=
   JOB DONE.
=------------------------------------------------------------------------------=
