
     Program PWSCF v.6.4.1 starts on 12May2023 at 20:22: 6 

     This program is part of the open-source Quantum ESPRESSO suite
     for quantum simulation of materials; please cite
         "P. Giannozzi et al., J. Phys.:Condens. Matter 21 395502 (2009);
         "P. Giannozzi et al., J. Phys.:Condens. Matter 29 465901 (2017);
          URL http://www.quantum-espresso.org", 
     in publications or presentations arising from this work. More details at
     http://www.quantum-espresso.org/quote

     Parallel version (MPI), running on     1 processors

     MPI processes distributed on     1 nodes
     Waiting for input...
     Reading input from standard input

     Current dimensions of program PWSCF are:
     Max number of different atomic species (ntypx) = 10
     Max number of k-points (npk) =  40000
     Max angular momentum in pseudopotentials (lmaxx) =  3
               file C.pbe-n-kjpaw_psl.1.0.0.UPF: wavefunction(s)  2S 2P renormalized

     Subspace diagonalization in iterative solution of the eigenvalue problem:
     a serial algorithm will be used


     G-vector sticks info
     --------------------
     sticks:   dense  smooth     PW     G-vecs:    dense   smooth      PW
     Sum         583     583    169                 9185     9185    1471



     bravais-lattice index     =            2
     lattice parameter (alat)  =       6.8000  a.u.
     unit-cell volume          =      78.6080 (a.u.)^3
     number of atoms/cell      =            2
     number of atomic types    =            1
     number of electrons       =         8.00
     number of Kohn-Sham states=            4
     kinetic-energy cutoff     =      90.0000  Ry
     charge density cutoff     =     360.0000  Ry
     convergence threshold     =      1.0E-08
     mixing beta               =       0.2000
     number of iterations used =            8  plain     mixing
     Exchange-correlation      = SLA PW PBX PBC ( 1  4  3  4 0 0)

     celldm(1)=   6.800000  celldm(2)=   0.000000  celldm(3)=   0.000000
     celldm(4)=   0.000000  celldm(5)=   0.000000  celldm(6)=   0.000000

     crystal axes: (cart. coord. in units of alat)
               a(1) = (  -0.500000   0.000000   0.500000 )  
               a(2) = (   0.000000   0.500000   0.500000 )  
               a(3) = (  -0.500000   0.500000   0.000000 )  

     reciprocal axes: (cart. coord. in units 2 pi/alat)
               b(1) = ( -1.000000 -1.000000  1.000000 )  
               b(2) = (  1.000000  1.000000  1.000000 )  
               b(3) = ( -1.000000  1.000000 -1.000000 )  


     PseudoPot. # 1 for C  read from file:
     ../../pseudo/C.pbe-n-kjpaw_psl.1.0.0.UPF
     MD5 check sum: 5f16ad9a65e90284d1d834d4ab3b0f7d
     Pseudo is Projector augmented-wave + core cor, Zval =  4.0
     Generated using "atomic" code by A. Dal Corso v.6.3
     Shape of augmentation charge: PSQ
     Using radial grid of 1073 points,  4 beta functions with: 
                l(1) =   0
                l(2) =   0
                l(3) =   1
                l(4) =   1
     Q(r) pseudized with 0 coefficients 


     atomic species   valence    mass     pseudopotential
        C              4.00    12.00000     C ( 1.00)

     48 Sym. Ops., with inversion, found (36 have fractional translation)



   Cartesian axes

     site n.     atom                  positions (alat units)
         1           C   tau(   1) = (  -0.1250000   0.1250000   0.1250000  )
         2           C   tau(   2) = (  -0.8750000   0.8750000   0.8750000  )

     number of k points=     8
                       cart. coord. in units 2pi/alat
        k(    1) = (   0.0000000   0.0000000   0.0000000), wk =   0.0312500
        k(    2) = (  -0.2500000   0.2500000  -0.2500000), wk =   0.2500000
        k(    3) = (   0.5000000  -0.5000000   0.5000000), wk =   0.1250000
        k(    4) = (   0.0000000   0.5000000   0.0000000), wk =   0.1875000
        k(    5) = (   0.7500000  -0.2500000   0.7500000), wk =   0.7500000
        k(    6) = (   0.5000000   0.0000000   0.5000000), wk =   0.3750000
        k(    7) = (   0.0000000  -1.0000000   0.0000000), wk =   0.0937500
        k(    8) = (  -0.5000000  -1.0000000   0.0000000), wk =   0.1875000

     Dense  grid:     9185 G-vectors     FFT dimensions: (  30,  30,  30)

     Estimated max dynamical RAM per process >      13.35 MB

     Check: negative core charge=   -0.000013

     Initial potential from superposition of free atoms

     starting charge    7.99992, renormalised to    8.00000
     Starting wfcs are    8 randomized atomic wfcs
     Checking if some PAW data can be deallocated... 

     total cpu time spent up to now is        0.6 secs

     Self-consistent Calculation

     iteration #  1     ecut=    90.00 Ry     beta= 0.20
     Davidson diagonalization with overlap
     ethr =  1.00E-04,  avg # of iterations =  3.9

     total cpu time spent up to now is        1.0 secs

     total energy              =     -36.88024924 Ry
     Harris-Foulkes estimate   =     -36.90159370 Ry
     estimated scf accuracy    <       0.11474312 Ry

     iteration #  2     ecut=    90.00 Ry     beta= 0.20
     Davidson diagonalization with overlap
     ethr =  1.43E-03,  avg # of iterations =  1.0

     total cpu time spent up to now is        1.1 secs

     total energy              =     -36.85192361 Ry
     Harris-Foulkes estimate   =     -36.88096316 Ry
     estimated scf accuracy    <       0.06484881 Ry

     iteration #  3     ecut=    90.00 Ry     beta= 0.20
     Davidson diagonalization with overlap
     ethr =  8.11E-04,  avg # of iterations =  1.5

     total cpu time spent up to now is        1.4 secs

     total energy              =     -36.85781042 Ry
     Harris-Foulkes estimate   =     -36.85782470 Ry
     estimated scf accuracy    <       0.00052964 Ry

     iteration #  4     ecut=    90.00 Ry     beta= 0.20
     Davidson diagonalization with overlap
     ethr =  6.62E-06,  avg # of iterations =  2.4

     total cpu time spent up to now is        1.6 secs

     total energy              =     -36.85807683 Ry
     Harris-Foulkes estimate   =     -36.85806979 Ry
     estimated scf accuracy    <       0.00001623 Ry

     iteration #  5     ecut=    90.00 Ry     beta= 0.20
     Davidson diagonalization with overlap
     ethr =  2.03E-07,  avg # of iterations =  2.2

     total cpu time spent up to now is        1.9 secs

     total energy              =     -36.85808063 Ry
     Harris-Foulkes estimate   =     -36.85807981 Ry
     estimated scf accuracy    <       0.00000100 Ry

     iteration #  6     ecut=    90.00 Ry     beta= 0.20
     Davidson diagonalization with overlap
     ethr =  1.25E-08,  avg # of iterations =  2.0

     total cpu time spent up to now is        2.2 secs

     total energy              =     -36.85808113 Ry
     Harris-Foulkes estimate   =     -36.85808073 Ry
     estimated scf accuracy    <       0.00000037 Ry

     iteration #  7     ecut=    90.00 Ry     beta= 0.20
     Davidson diagonalization with overlap
     ethr =  4.68E-09,  avg # of iterations =  2.0

     total cpu time spent up to now is        2.4 secs

     End of self-consistent calculation

          k = 0.0000 0.0000 0.0000 (  1139 PWs)   bands (ev):

    -8.2294  12.9090  12.9090  12.9090

          k =-0.2500 0.2500-0.2500 (  1131 PWs)   bands (ev):

    -6.5461   6.4330  11.2049  11.2049

          k = 0.5000-0.5000 0.5000 (  1158 PWs)   bands (ev):

    -2.6010  -0.1911  10.1712  10.1712

          k = 0.0000 0.5000 0.0000 (  1118 PWs)   bands (ev):

    -5.9868   8.4193   8.8887   8.8887

          k = 0.7500-0.2500 0.7500 (  1128 PWs)   bands (ev):

    -2.3297   2.2993   6.2980   8.1477

          k = 0.5000 0.0000 0.5000 (  1125 PWs)   bands (ev):

    -3.8487   4.3294   5.4716   9.9674

          k = 0.0000-1.0000 0.0000 (  1138 PWs)   bands (ev):

     0.3184   0.3184   6.7579   6.7579

          k =-0.5000-1.0000 0.0000 (  1144 PWs)   bands (ev):

     1.0692   1.0692   4.7984   4.7984

     highest occupied level (ev):    12.9090

!    total energy              =     -36.85808120 Ry
     Harris-Foulkes estimate   =     -36.85808119 Ry
     estimated scf accuracy    <          2.8E-09 Ry

     total all-electron energy =      -152.386276 Ry

     The total energy is the sum of the following terms:

     one-electron contribution =       8.16922959 Ry
     hartree contribution      =       1.98390839 Ry
     xc contribution           =      -9.33886120 Ry
     ewald contribution        =     -25.34963785 Ry
     one-center paw contrib.   =     -12.32272012 Ry

     convergence has been achieved in   7 iterations

     Writing output data file diamond.save/

     init_run     :      0.63s CPU      0.41s WALL (       1 calls)
     electrons    :      4.26s CPU      1.79s WALL (       1 calls)

     Called by init_run:
     wfcinit      :      0.41s CPU      0.21s WALL (       1 calls)
     potinit      :      0.06s CPU      0.06s WALL (       1 calls)
     hinit0       :      0.13s CPU      0.13s WALL (       1 calls)

     Called by electrons:
     c_bands      :      2.23s CPU      0.89s WALL (       7 calls)
     sum_band     :      0.57s CPU      0.27s WALL (       7 calls)
     v_of_rho     :      0.32s CPU      0.13s WALL (       8 calls)
     newd         :      0.07s CPU      0.05s WALL (       8 calls)
     PAW_pot      :      1.10s CPU      0.51s WALL (       8 calls)
     mix_rho      :      0.03s CPU      0.01s WALL (       7 calls)

     Called by c_bands:
     init_us_2    :      0.07s CPU      0.03s WALL (     120 calls)
     cegterg      :      2.10s CPU      0.84s WALL (      56 calls)

     Called by sum_band:
     sum_band:bec :      0.00s CPU      0.00s WALL (      56 calls)
     addusdens    :      0.10s CPU      0.04s WALL (       7 calls)

     Called by *egterg:
     h_psi        :      2.36s CPU      0.99s WALL (     184 calls)
     s_psi        :      0.02s CPU      0.01s WALL (     184 calls)
     g_psi        :      0.01s CPU      0.00s WALL (     120 calls)
     cdiaghg      :      0.02s CPU      0.01s WALL (     176 calls)

     Called by h_psi:
     h_psi:pot    :      2.35s CPU      0.99s WALL (     184 calls)
     h_psi:calbec :      0.29s CPU      0.18s WALL (     184 calls)
     vloc_psi     :      2.05s CPU      0.80s WALL (     184 calls)
     add_vuspsi   :      0.02s CPU      0.01s WALL (     184 calls)

     General routines
     calbec       :      0.34s CPU      0.23s WALL (     240 calls)
     fft          :      0.20s CPU      0.09s WALL (      88 calls)
     ffts         :      0.02s CPU      0.01s WALL (       7 calls)
     fftw         :      2.19s CPU      0.86s WALL (    1582 calls)

     Parallel routines

     PWSCF        :      5.07s CPU      2.38s WALL


   This run was terminated on:  20:22: 8  12May2023            

=------------------------------------------------------------------------------=
   JOB DONE.
=------------------------------------------------------------------------------=
