
     Program PWSCF v.6.4.1 starts on 12May2023 at 20:21:53 

     This program is part of the open-source Quantum ESPRESSO suite
     for quantum simulation of materials; please cite
         "P. Giannozzi et al., J. Phys.:Condens. Matter 21 395502 (2009);
         "P. Giannozzi et al., J. Phys.:Condens. Matter 29 465901 (2017);
          URL http://www.quantum-espresso.org", 
     in publications or presentations arising from this work. More details at
     http://www.quantum-espresso.org/quote

     Parallel version (MPI), running on     1 processors

     MPI processes distributed on     1 nodes
     Waiting for input...
     Reading input from standard input

     Current dimensions of program PWSCF are:
     Max number of different atomic species (ntypx) = 10
     Max number of k-points (npk) =  40000
     Max angular momentum in pseudopotentials (lmaxx) =  3
               file C.pbe-n-kjpaw_psl.1.0.0.UPF: wavefunction(s)  2S 2P renormalized

     Subspace diagonalization in iterative solution of the eigenvalue problem:
     a serial algorithm will be used


     G-vector sticks info
     --------------------
     sticks:   dense  smooth     PW     G-vecs:    dense   smooth      PW
     Sum         511     511    163                 7631     7631    1363



     bravais-lattice index     =            2
     lattice parameter (alat)  =       6.4000  a.u.
     unit-cell volume          =      65.5360 (a.u.)^3
     number of atoms/cell      =            2
     number of atomic types    =            1
     number of electrons       =         8.00
     number of Kohn-Sham states=            4
     kinetic-energy cutoff     =      90.0000  Ry
     charge density cutoff     =     360.0000  Ry
     convergence threshold     =      1.0E-08
     mixing beta               =       0.2000
     number of iterations used =            8  plain     mixing
     Exchange-correlation      = SLA PW PBX PBC ( 1  4  3  4 0 0)

     celldm(1)=   6.400000  celldm(2)=   0.000000  celldm(3)=   0.000000
     celldm(4)=   0.000000  celldm(5)=   0.000000  celldm(6)=   0.000000

     crystal axes: (cart. coord. in units of alat)
               a(1) = (  -0.500000   0.000000   0.500000 )  
               a(2) = (   0.000000   0.500000   0.500000 )  
               a(3) = (  -0.500000   0.500000   0.000000 )  

     reciprocal axes: (cart. coord. in units 2 pi/alat)
               b(1) = ( -1.000000 -1.000000  1.000000 )  
               b(2) = (  1.000000  1.000000  1.000000 )  
               b(3) = ( -1.000000  1.000000 -1.000000 )  


     PseudoPot. # 1 for C  read from file:
     ../../pseudo/C.pbe-n-kjpaw_psl.1.0.0.UPF
     MD5 check sum: 5f16ad9a65e90284d1d834d4ab3b0f7d
     Pseudo is Projector augmented-wave + core cor, Zval =  4.0
     Generated using "atomic" code by A. Dal Corso v.6.3
     Shape of augmentation charge: PSQ
     Using radial grid of 1073 points,  4 beta functions with: 
                l(1) =   0
                l(2) =   0
                l(3) =   1
                l(4) =   1
     Q(r) pseudized with 0 coefficients 


     atomic species   valence    mass     pseudopotential
        C              4.00    12.00000     C ( 1.00)

     48 Sym. Ops., with inversion, found (36 have fractional translation)



   Cartesian axes

     site n.     atom                  positions (alat units)
         1           C   tau(   1) = (  -0.1250000   0.1250000   0.1250000  )
         2           C   tau(   2) = (  -0.8750000   0.8750000   0.8750000  )

     number of k points=     8
                       cart. coord. in units 2pi/alat
        k(    1) = (   0.0000000   0.0000000   0.0000000), wk =   0.0312500
        k(    2) = (  -0.2500000   0.2500000  -0.2500000), wk =   0.2500000
        k(    3) = (   0.5000000  -0.5000000   0.5000000), wk =   0.1250000
        k(    4) = (   0.0000000   0.5000000   0.0000000), wk =   0.1875000
        k(    5) = (   0.7500000  -0.2500000   0.7500000), wk =   0.7500000
        k(    6) = (   0.5000000   0.0000000   0.5000000), wk =   0.3750000
        k(    7) = (   0.0000000  -1.0000000   0.0000000), wk =   0.0937500
        k(    8) = (  -0.5000000  -1.0000000   0.0000000), wk =   0.1875000

     Dense  grid:     7631 G-vectors     FFT dimensions: (  30,  30,  30)

     Estimated max dynamical RAM per process >      11.46 MB

     Check: negative core charge=   -0.000013

     Initial potential from superposition of free atoms

     starting charge    7.99992, renormalised to    8.00000
     Starting wfcs are    8 randomized atomic wfcs
     Checking if some PAW data can be deallocated... 

     total cpu time spent up to now is        0.4 secs

     Self-consistent Calculation

     iteration #  1     ecut=    90.00 Ry     beta= 0.20
     Davidson diagonalization with overlap
     ethr =  1.00E-04,  avg # of iterations =  3.9

     total cpu time spent up to now is        0.8 secs

     total energy              =     -36.86255356 Ry
     Harris-Foulkes estimate   =     -36.89758656 Ry
     estimated scf accuracy    <       0.17009502 Ry

     iteration #  2     ecut=    90.00 Ry     beta= 0.20
     Davidson diagonalization with overlap
     ethr =  2.13E-03,  avg # of iterations =  1.0

     total cpu time spent up to now is        1.0 secs

     total energy              =     -36.81557268 Ry
     Harris-Foulkes estimate   =     -36.86365277 Ry
     estimated scf accuracy    <       0.09571631 Ry

     iteration #  3     ecut=    90.00 Ry     beta= 0.20
     Davidson diagonalization with overlap
     ethr =  1.20E-03,  avg # of iterations =  1.8

     total cpu time spent up to now is        1.2 secs

     total energy              =     -36.82498956 Ry
     Harris-Foulkes estimate   =     -36.82500114 Ry
     estimated scf accuracy    <       0.00047837 Ry

     iteration #  4     ecut=    90.00 Ry     beta= 0.20
     Davidson diagonalization with overlap
     ethr =  5.98E-06,  avg # of iterations =  2.6

     total cpu time spent up to now is        1.4 secs

     total energy              =     -36.82534689 Ry
     Harris-Foulkes estimate   =     -36.82534154 Ry
     estimated scf accuracy    <       0.00006743 Ry

     iteration #  5     ecut=    90.00 Ry     beta= 0.20
     Davidson diagonalization with overlap
     ethr =  8.43E-07,  avg # of iterations =  1.5

     total cpu time spent up to now is        1.6 secs

     total energy              =     -36.82535327 Ry
     Harris-Foulkes estimate   =     -36.82535218 Ry
     estimated scf accuracy    <       0.00000235 Ry

     iteration #  6     ecut=    90.00 Ry     beta= 0.20
     Davidson diagonalization with overlap
     ethr =  2.94E-08,  avg # of iterations =  2.1

     total cpu time spent up to now is        1.8 secs

     total energy              =     -36.82535324 Ry
     Harris-Foulkes estimate   =     -36.82535364 Ry
     estimated scf accuracy    <       0.00000184 Ry

     iteration #  7     ecut=    90.00 Ry     beta= 0.20
     Davidson diagonalization with overlap
     ethr =  2.30E-08,  avg # of iterations =  2.0

     total cpu time spent up to now is        2.0 secs

     total energy              =     -36.82535346 Ry
     Harris-Foulkes estimate   =     -36.82535346 Ry
     estimated scf accuracy    <       0.00000007 Ry

     iteration #  8     ecut=    90.00 Ry     beta= 0.20
     Davidson diagonalization with overlap
     ethr =  8.16E-10,  avg # of iterations =  1.1

     total cpu time spent up to now is        2.2 secs

     total energy              =     -36.82535346 Ry
     Harris-Foulkes estimate   =     -36.82535346 Ry
     estimated scf accuracy    <       0.00000003 Ry

     iteration #  9     ecut=    90.00 Ry     beta= 0.20
     Davidson diagonalization with overlap
     ethr =  3.97E-10,  avg # of iterations =  1.6

     total cpu time spent up to now is        2.3 secs

     End of self-consistent calculation

          k = 0.0000 0.0000 0.0000 (   941 PWs)   bands (ev):

    -7.3236  16.3788  16.3788  16.3788

          k =-0.2500 0.2500-0.2500 (   941 PWs)   bands (ev):

    -5.4170   8.9829  14.3430  14.3430

          k = 0.5000-0.5000 0.5000 (   960 PWs)   bands (ev):

    -0.5897   1.1321  13.1453  13.1453

          k = 0.0000 0.5000 0.0000 (   950 PWs)   bands (ev):

    -4.7860  11.5536  11.5536  11.6524

          k = 0.7500-0.2500 0.7500 (   948 PWs)   bands (ev):

    -0.5517   4.3653   8.7716  10.7030

          k = 0.5000 0.0000 0.5000 (   931 PWs)   bands (ev):

    -2.3284   6.8246   7.6279  12.8799

          k = 0.0000-1.0000 0.0000 (   950 PWs)   bands (ev):

     2.4158   2.4158   9.0619   9.0619

          k =-0.5000-1.0000 0.0000 (   952 PWs)   bands (ev):

     3.4966   3.4966   6.5976   6.5976

     highest occupied level (ev):    16.3788

!    total energy              =     -36.82535346 Ry
     Harris-Foulkes estimate   =     -36.82535346 Ry
     estimated scf accuracy    <          9.6E-10 Ry

     total all-electron energy =      -152.353548 Ry

     The total energy is the sum of the following terms:

     one-electron contribution =      10.29714134 Ry
     hartree contribution      =       1.80218567 Ry
     xc contribution           =      -9.65868620 Ry
     ewald contribution        =     -26.93399022 Ry
     one-center paw contrib.   =     -12.33200404 Ry

     convergence has been achieved in   9 iterations

     Writing output data file diamond.save/

     init_run     :      0.36s CPU      0.24s WALL (       1 calls)
     electrons    :      4.51s CPU      1.93s WALL (       1 calls)

     Called by init_run:
     wfcinit      :      0.17s CPU      0.07s WALL (       1 calls)
     potinit      :      0.05s CPU      0.05s WALL (       1 calls)
     hinit0       :      0.11s CPU      0.11s WALL (       1 calls)

     Called by electrons:
     c_bands      :      2.09s CPU      0.98s WALL (       9 calls)
     sum_band     :      0.55s CPU      0.23s WALL (       9 calls)
     v_of_rho     :      0.34s CPU      0.13s WALL (      10 calls)
     newd         :      0.08s CPU      0.04s WALL (      10 calls)
     PAW_pot      :      1.48s CPU      0.57s WALL (      10 calls)
     mix_rho      :      0.03s CPU      0.01s WALL (       9 calls)

     Called by c_bands:
     init_us_2    :      0.06s CPU      0.02s WALL (     152 calls)
     cegterg      :      1.99s CPU      0.95s WALL (      72 calls)

     Called by sum_band:
     sum_band:bec :      0.00s CPU      0.00s WALL (      72 calls)
     addusdens    :      0.09s CPU      0.04s WALL (       9 calls)

     Called by *egterg:
     h_psi        :      2.02s CPU      0.96s WALL (     221 calls)
     s_psi        :      0.02s CPU      0.01s WALL (     221 calls)
     g_psi        :      0.01s CPU      0.00s WALL (     141 calls)
     cdiaghg      :      0.02s CPU      0.01s WALL (     213 calls)

     Called by h_psi:
     h_psi:pot    :      2.02s CPU      0.96s WALL (     221 calls)
     h_psi:calbec :      0.34s CPU      0.28s WALL (     221 calls)
     vloc_psi     :      1.66s CPU      0.67s WALL (     221 calls)
     add_vuspsi   :      0.02s CPU      0.01s WALL (     221 calls)

     General routines
     calbec       :      0.39s CPU      0.31s WALL (     293 calls)
     fft          :      0.21s CPU      0.10s WALL (     110 calls)
     ffts         :      0.02s CPU      0.01s WALL (       9 calls)
     fftw         :      1.83s CPU      0.72s WALL (    1926 calls)

     Parallel routines

     PWSCF        :      5.06s CPU      2.35s WALL


   This run was terminated on:  20:21:55  12May2023            

=------------------------------------------------------------------------------=
   JOB DONE.
=------------------------------------------------------------------------------=
