
     Program PWSCF v.6.4.1 starts on 12May2023 at 20:21: 8 

     This program is part of the open-source Quantum ESPRESSO suite
     for quantum simulation of materials; please cite
         "P. Giannozzi et al., J. Phys.:Condens. Matter 21 395502 (2009);
         "P. Giannozzi et al., J. Phys.:Condens. Matter 29 465901 (2017);
          URL http://www.quantum-espresso.org", 
     in publications or presentations arising from this work. More details at
     http://www.quantum-espresso.org/quote

     Parallel version (MPI), running on     1 processors

     MPI processes distributed on     1 nodes
     Waiting for input...
     Reading input from standard input

     Current dimensions of program PWSCF are:
     Max number of different atomic species (ntypx) = 10
     Max number of k-points (npk) =  40000
     Max angular momentum in pseudopotentials (lmaxx) =  3
               file C.pbe-n-kjpaw_psl.1.0.0.UPF: wavefunction(s)  2S 2P renormalized

     Subspace diagonalization in iterative solution of the eigenvalue problem:
     a serial algorithm will be used


     G-vector sticks info
     --------------------
     sticks:   dense  smooth     PW     G-vecs:    dense   smooth      PW
     Sum         301     301     97                 3383     3383     645



     bravais-lattice index     =            2
     lattice parameter (alat)  =       4.9000  a.u.
     unit-cell volume          =      29.4123 (a.u.)^3
     number of atoms/cell      =            2
     number of atomic types    =            1
     number of electrons       =         8.00
     number of Kohn-Sham states=            4
     kinetic-energy cutoff     =      90.0000  Ry
     charge density cutoff     =     360.0000  Ry
     convergence threshold     =      1.0E-08
     mixing beta               =       0.2000
     number of iterations used =            8  plain     mixing
     Exchange-correlation      = SLA PW PBX PBC ( 1  4  3  4 0 0)

     celldm(1)=   4.900000  celldm(2)=   0.000000  celldm(3)=   0.000000
     celldm(4)=   0.000000  celldm(5)=   0.000000  celldm(6)=   0.000000

     crystal axes: (cart. coord. in units of alat)
               a(1) = (  -0.500000   0.000000   0.500000 )  
               a(2) = (   0.000000   0.500000   0.500000 )  
               a(3) = (  -0.500000   0.500000   0.000000 )  

     reciprocal axes: (cart. coord. in units 2 pi/alat)
               b(1) = ( -1.000000 -1.000000  1.000000 )  
               b(2) = (  1.000000  1.000000  1.000000 )  
               b(3) = ( -1.000000  1.000000 -1.000000 )  


     PseudoPot. # 1 for C  read from file:
     ../../pseudo/C.pbe-n-kjpaw_psl.1.0.0.UPF
     MD5 check sum: 5f16ad9a65e90284d1d834d4ab3b0f7d
     Pseudo is Projector augmented-wave + core cor, Zval =  4.0
     Generated using "atomic" code by A. Dal Corso v.6.3
     Shape of augmentation charge: PSQ
     Using radial grid of 1073 points,  4 beta functions with: 
                l(1) =   0
                l(2) =   0
                l(3) =   1
                l(4) =   1
     Q(r) pseudized with 0 coefficients 


     atomic species   valence    mass     pseudopotential
        C              4.00    12.00000     C ( 1.00)

     48 Sym. Ops., with inversion, found (36 have fractional translation)



   Cartesian axes

     site n.     atom                  positions (alat units)
         1           C   tau(   1) = (  -0.1250000   0.1250000   0.1250000  )
         2           C   tau(   2) = (  -0.8750000   0.8750000   0.8750000  )

     number of k points=     8
                       cart. coord. in units 2pi/alat
        k(    1) = (   0.0000000   0.0000000   0.0000000), wk =   0.0312500
        k(    2) = (  -0.2500000   0.2500000  -0.2500000), wk =   0.2500000
        k(    3) = (   0.5000000  -0.5000000   0.5000000), wk =   0.1250000
        k(    4) = (   0.0000000   0.5000000   0.0000000), wk =   0.1875000
        k(    5) = (   0.7500000  -0.2500000   0.7500000), wk =   0.7500000
        k(    6) = (   0.5000000   0.0000000   0.5000000), wk =   0.3750000
        k(    7) = (   0.0000000  -1.0000000   0.0000000), wk =   0.0937500
        k(    8) = (  -0.5000000  -1.0000000   0.0000000), wk =   0.1875000

     Dense  grid:     3383 G-vectors     FFT dimensions: (  24,  24,  24)

     Estimated max dynamical RAM per process >       5.35 MB

     Check: negative core charge=   -0.000012

     Initial potential from superposition of free atoms

     starting charge    7.99992, renormalised to    8.00000
     Starting wfcs are    8 randomized atomic wfcs
     Checking if some PAW data can be deallocated... 

     total cpu time spent up to now is        0.4 secs

     Self-consistent Calculation

     iteration #  1     ecut=    90.00 Ry     beta= 0.20
     Davidson diagonalization with overlap
     ethr =  1.00E-04,  avg # of iterations =  3.6

     total cpu time spent up to now is        0.5 secs

     total energy              =     -35.26281608 Ry
     Harris-Foulkes estimate   =     -35.39664392 Ry
     estimated scf accuracy    <       0.52434726 Ry

     iteration #  2     ecut=    90.00 Ry     beta= 0.20
     Davidson diagonalization with overlap
     ethr =  6.55E-03,  avg # of iterations =  1.0

     total cpu time spent up to now is        0.6 secs

     total energy              =     -35.08046295 Ry
     Harris-Foulkes estimate   =     -35.26636576 Ry
     estimated scf accuracy    <       0.29652680 Ry

     iteration #  3     ecut=    90.00 Ry     beta= 0.20
     Davidson diagonalization with overlap
     ethr =  3.71E-03,  avg # of iterations =  2.0

     total cpu time spent up to now is        0.7 secs

     total energy              =     -35.11292262 Ry
     Harris-Foulkes estimate   =     -35.11295336 Ry
     estimated scf accuracy    <       0.00034350 Ry

     iteration #  4     ecut=    90.00 Ry     beta= 0.20
     Davidson diagonalization with overlap
     ethr =  4.29E-06,  avg # of iterations =  3.1

     total cpu time spent up to now is        0.8 secs

     total energy              =     -35.11385932 Ry
     Harris-Foulkes estimate   =     -35.11386702 Ry
     estimated scf accuracy    <       0.00018416 Ry

     iteration #  5     ecut=    90.00 Ry     beta= 0.20
     Davidson diagonalization with overlap
     ethr =  2.30E-06,  avg # of iterations =  2.0

     total cpu time spent up to now is        0.9 secs

     total energy              =     -35.11387638 Ry
     Harris-Foulkes estimate   =     -35.11388433 Ry
     estimated scf accuracy    <       0.00004200 Ry

     iteration #  6     ecut=    90.00 Ry     beta= 0.20
     Davidson diagonalization with overlap
     ethr =  5.25E-07,  avg # of iterations =  1.0

     total cpu time spent up to now is        1.0 secs

     total energy              =     -35.11387623 Ry
     Harris-Foulkes estimate   =     -35.11387783 Ry
     estimated scf accuracy    <       0.00000517 Ry

     iteration #  7     ecut=    90.00 Ry     beta= 0.20
     Davidson diagonalization with overlap
     ethr =  6.47E-08,  avg # of iterations =  1.4

     total cpu time spent up to now is        1.1 secs

     total energy              =     -35.11387667 Ry
     Harris-Foulkes estimate   =     -35.11387666 Ry
     estimated scf accuracy    <       0.00000002 Ry

     iteration #  8     ecut=    90.00 Ry     beta= 0.20
     Davidson diagonalization with overlap
     ethr =  2.26E-10,  avg # of iterations =  2.8

     total cpu time spent up to now is        1.3 secs

     total energy              =     -35.11387669 Ry
     Harris-Foulkes estimate   =     -35.11387670 Ry
     estimated scf accuracy    <       0.00000004 Ry

     iteration #  9     ecut=    90.00 Ry     beta= 0.20
     Davidson diagonalization with overlap
     ethr =  2.26E-10,  avg # of iterations =  1.0

     total cpu time spent up to now is        1.4 secs

     total energy              =     -35.11387669 Ry
     Harris-Foulkes estimate   =     -35.11387669 Ry
     estimated scf accuracy    <       0.00000001 Ry

     iteration # 10     ecut=    90.00 Ry     beta= 0.20
     Davidson diagonalization with overlap
     ethr =  1.33E-10,  avg # of iterations =  1.6

     total cpu time spent up to now is        1.5 secs

     End of self-consistent calculation

          k = 0.0000 0.0000 0.0000 (   411 PWs)   bands (ev):

    -0.2534  39.0588  39.0588  39.0588

          k =-0.2500 0.2500-0.2500 (   429 PWs)   bands (ev):

     2.6321  25.7271  34.8024  34.8024

          k = 0.5000-0.5000 0.5000 (   410 PWs)   bands (ev):

     9.3110  13.9578  32.6429  32.6429

          k = 0.0000 0.5000 0.0000 (   431 PWs)   bands (ev):

     3.6809  28.8164  28.8164  32.5269

          k = 0.7500-0.2500 0.7500 (   428 PWs)   bands (ev):

    10.3020  18.2738  25.5978  27.3104

          k = 0.5000 0.0000 0.5000 (   423 PWs)   bands (ev):

     7.4059  22.6758  22.9423  31.8698

          k = 0.0000-1.0000 0.0000 (   444 PWs)   bands (ev):

    15.7211  15.7211  24.0548  24.0548

          k =-0.5000-1.0000 0.0000 (   412 PWs)   bands (ev):

    17.9197  17.9197  20.0289  20.0289

     highest occupied level (ev):    39.0588

!    total energy              =     -35.11387669 Ry
     Harris-Foulkes estimate   =     -35.11387669 Ry
     estimated scf accuracy    <          2.9E-12 Ry

     total all-electron energy =      -150.642071 Ry

     The total energy is the sum of the following terms:

     one-electron contribution =      22.81377956 Ry
     hartree contribution      =       1.15131733 Ry
     xc contribution           =     -11.46909524 Ry
     ewald contribution        =     -35.17908927 Ry
     one-center paw contrib.   =     -12.43078908 Ry

     convergence has been achieved in  10 iterations

     Writing output data file diamond.save/

     init_run     :      0.26s CPU      0.20s WALL (       1 calls)
     electrons    :      2.62s CPU      1.12s WALL (       1 calls)

     Called by init_run:
     wfcinit      :      0.06s CPU      0.02s WALL (       1 calls)
     potinit      :      0.05s CPU      0.05s WALL (       1 calls)
     hinit0       :      0.10s CPU      0.10s WALL (       1 calls)

     Called by electrons:
     c_bands      :      0.74s CPU      0.31s WALL (      10 calls)
     sum_band     :      0.19s CPU      0.08s WALL (      10 calls)
     v_of_rho     :      0.11s CPU      0.05s WALL (      11 calls)
     newd         :      0.11s CPU      0.05s WALL (      11 calls)
     PAW_pot      :      1.52s CPU      0.69s WALL (      11 calls)
     mix_rho      :      0.02s CPU      0.01s WALL (      10 calls)

     Called by c_bands:
     init_us_2    :      0.03s CPU      0.01s WALL (     168 calls)
     cegterg      :      0.69s CPU      0.28s WALL (      80 calls)

     Called by sum_band:
     sum_band:bec :      0.00s CPU      0.00s WALL (      80 calls)
     addusdens    :      0.05s CPU      0.02s WALL (      10 calls)

     Called by *egterg:
     h_psi        :      0.59s CPU      0.23s WALL (     244 calls)
     s_psi        :      0.02s CPU      0.01s WALL (     244 calls)
     g_psi        :      0.00s CPU      0.00s WALL (     156 calls)
     cdiaghg      :      0.09s CPU      0.04s WALL (     236 calls)

     Called by h_psi:
     h_psi:pot    :      0.59s CPU      0.23s WALL (     244 calls)
     h_psi:calbec :      0.05s CPU      0.02s WALL (     244 calls)
     vloc_psi     :      0.52s CPU      0.21s WALL (     244 calls)
     add_vuspsi   :      0.02s CPU      0.01s WALL (     244 calls)

     General routines
     calbec       :      0.06s CPU      0.02s WALL (     324 calls)
     fft          :      0.05s CPU      0.02s WALL (     121 calls)
     ffts         :      0.00s CPU      0.00s WALL (      10 calls)
     fftw         :      0.52s CPU      0.21s WALL (    2174 calls)

     Parallel routines

     PWSCF        :      3.09s CPU      1.52s WALL


   This run was terminated on:  20:21:10  12May2023            

=------------------------------------------------------------------------------=
   JOB DONE.
=------------------------------------------------------------------------------=
