
     Program PWSCF v.6.4.1 starts on 12May2023 at 20:22:53 

     This program is part of the open-source Quantum ESPRESSO suite
     for quantum simulation of materials; please cite
         "P. Giannozzi et al., J. Phys.:Condens. Matter 21 395502 (2009);
         "P. Giannozzi et al., J. Phys.:Condens. Matter 29 465901 (2017);
          URL http://www.quantum-espresso.org", 
     in publications or presentations arising from this work. More details at
     http://www.quantum-espresso.org/quote

     Parallel version (MPI), running on     1 processors

     MPI processes distributed on     1 nodes
     Waiting for input...
     Reading input from standard input

     Current dimensions of program PWSCF are:
     Max number of different atomic species (ntypx) = 10
     Max number of k-points (npk) =  40000
     Max angular momentum in pseudopotentials (lmaxx) =  3
               file C.pbe-n-kjpaw_psl.1.0.0.UPF: wavefunction(s)  2S 2P renormalized

     Subspace diagonalization in iterative solution of the eigenvalue problem:
     a serial algorithm will be used


     G-vector sticks info
     --------------------
     sticks:   dense  smooth     PW     G-vecs:    dense   smooth      PW
     Sum         817     817    241                15353    15353    2445



     bravais-lattice index     =            2
     lattice parameter (alat)  =       8.1000  a.u.
     unit-cell volume          =     132.8602 (a.u.)^3
     number of atoms/cell      =            2
     number of atomic types    =            1
     number of electrons       =         8.00
     number of Kohn-Sham states=            4
     kinetic-energy cutoff     =      90.0000  Ry
     charge density cutoff     =     360.0000  Ry
     convergence threshold     =      1.0E-08
     mixing beta               =       0.2000
     number of iterations used =            8  plain     mixing
     Exchange-correlation      = SLA PW PBX PBC ( 1  4  3  4 0 0)

     celldm(1)=   8.100000  celldm(2)=   0.000000  celldm(3)=   0.000000
     celldm(4)=   0.000000  celldm(5)=   0.000000  celldm(6)=   0.000000

     crystal axes: (cart. coord. in units of alat)
               a(1) = (  -0.500000   0.000000   0.500000 )  
               a(2) = (   0.000000   0.500000   0.500000 )  
               a(3) = (  -0.500000   0.500000   0.000000 )  

     reciprocal axes: (cart. coord. in units 2 pi/alat)
               b(1) = ( -1.000000 -1.000000  1.000000 )  
               b(2) = (  1.000000  1.000000  1.000000 )  
               b(3) = ( -1.000000  1.000000 -1.000000 )  


     PseudoPot. # 1 for C  read from file:
     ../../pseudo/C.pbe-n-kjpaw_psl.1.0.0.UPF
     MD5 check sum: 5f16ad9a65e90284d1d834d4ab3b0f7d
     Pseudo is Projector augmented-wave + core cor, Zval =  4.0
     Generated using "atomic" code by A. Dal Corso v.6.3
     Shape of augmentation charge: PSQ
     Using radial grid of 1073 points,  4 beta functions with: 
                l(1) =   0
                l(2) =   0
                l(3) =   1
                l(4) =   1
     Q(r) pseudized with 0 coefficients 


     atomic species   valence    mass     pseudopotential
        C              4.00    12.00000     C ( 1.00)

     48 Sym. Ops., with inversion, found (36 have fractional translation)



   Cartesian axes

     site n.     atom                  positions (alat units)
         1           C   tau(   1) = (  -0.1250000   0.1250000   0.1250000  )
         2           C   tau(   2) = (  -0.8750000   0.8750000   0.8750000  )

     number of k points=     8
                       cart. coord. in units 2pi/alat
        k(    1) = (   0.0000000   0.0000000   0.0000000), wk =   0.0312500
        k(    2) = (  -0.2500000   0.2500000  -0.2500000), wk =   0.2500000
        k(    3) = (   0.5000000  -0.5000000   0.5000000), wk =   0.1250000
        k(    4) = (   0.0000000   0.5000000   0.0000000), wk =   0.1875000
        k(    5) = (   0.7500000  -0.2500000   0.7500000), wk =   0.7500000
        k(    6) = (   0.5000000   0.0000000   0.5000000), wk =   0.3750000
        k(    7) = (   0.0000000  -1.0000000   0.0000000), wk =   0.0937500
        k(    8) = (  -0.5000000  -1.0000000   0.0000000), wk =   0.1875000

     Dense  grid:    15353 G-vectors     FFT dimensions: (  36,  36,  36)

     Estimated max dynamical RAM per process >      22.21 MB

     Check: negative core charge=   -0.000011

     Initial potential from superposition of free atoms

     starting charge    7.99992, renormalised to    8.00000
     Starting wfcs are    8 randomized atomic wfcs
     Checking if some PAW data can be deallocated... 

     total cpu time spent up to now is        0.5 secs

     Self-consistent Calculation

     iteration #  1     ecut=    90.00 Ry     beta= 0.20
     Davidson diagonalization with overlap
     ethr =  1.00E-04,  avg # of iterations =  3.8

     total cpu time spent up to now is        1.0 secs

     total energy              =     -36.61969727 Ry
     Harris-Foulkes estimate   =     -36.62093234 Ry
     estimated scf accuracy    <       0.02968182 Ry

     iteration #  2     ecut=    90.00 Ry     beta= 0.20
     Davidson diagonalization with overlap
     ethr =  3.71E-04,  avg # of iterations =  1.0

     total cpu time spent up to now is        1.2 secs

     total energy              =     -36.61816876 Ry
     Harris-Foulkes estimate   =     -36.61981195 Ry
     estimated scf accuracy    <       0.01811551 Ry

     iteration #  3     ecut=    90.00 Ry     beta= 0.20
     Davidson diagonalization with overlap
     ethr =  2.26E-04,  avg # of iterations =  1.0

     total cpu time spent up to now is        1.5 secs

     total energy              =     -36.61886748 Ry
     Harris-Foulkes estimate   =     -36.61888094 Ry
     estimated scf accuracy    <       0.00026768 Ry

     iteration #  4     ecut=    90.00 Ry     beta= 0.20
     Davidson diagonalization with overlap
     ethr =  3.35E-06,  avg # of iterations =  2.1

     total cpu time spent up to now is        1.7 secs

     total energy              =     -36.61889284 Ry
     Harris-Foulkes estimate   =     -36.61891152 Ry
     estimated scf accuracy    <       0.00003832 Ry

     iteration #  5     ecut=    90.00 Ry     beta= 0.20
     Davidson diagonalization with overlap
     ethr =  4.79E-07,  avg # of iterations =  2.1

     total cpu time spent up to now is        1.9 secs

     total energy              =     -36.61889986 Ry
     Harris-Foulkes estimate   =     -36.61889985 Ry
     estimated scf accuracy    <       0.00000028 Ry

     iteration #  6     ecut=    90.00 Ry     beta= 0.20
     Davidson diagonalization with overlap
     ethr =  3.55E-09,  avg # of iterations =  3.8

     total cpu time spent up to now is        2.2 secs

     total energy              =     -36.61890041 Ry
     Harris-Foulkes estimate   =     -36.61890017 Ry
     estimated scf accuracy    <       0.00000027 Ry

     iteration #  7     ecut=    90.00 Ry     beta= 0.20
     Davidson diagonalization with overlap
     ethr =  3.37E-09,  avg # of iterations =  2.4

     total cpu time spent up to now is        2.7 secs

     total energy              =     -36.61890018 Ry
     Harris-Foulkes estimate   =     -36.61890067 Ry
     estimated scf accuracy    <       0.00000111 Ry

     iteration #  8     ecut=    90.00 Ry     beta= 0.20
     Davidson diagonalization with overlap
     ethr =  3.37E-09,  avg # of iterations =  2.0

     total cpu time spent up to now is        2.9 secs

     total energy              =     -36.61890024 Ry
     Harris-Foulkes estimate   =     -36.61890025 Ry
     estimated scf accuracy    <       0.00000004 Ry

     iteration #  9     ecut=    90.00 Ry     beta= 0.20
     Davidson diagonalization with overlap
     ethr =  5.22E-10,  avg # of iterations =  1.0

     total cpu time spent up to now is        3.2 secs

     total energy              =     -36.61890024 Ry
     Harris-Foulkes estimate   =     -36.61890024 Ry
     estimated scf accuracy    <       0.00000002 Ry

     iteration # 10     ecut=    90.00 Ry     beta= 0.20
     Davidson diagonalization with overlap
     ethr =  2.92E-10,  avg # of iterations =  1.0

     total cpu time spent up to now is        3.4 secs

     total energy              =     -36.61890023 Ry
     Harris-Foulkes estimate   =     -36.61890024 Ry
     estimated scf accuracy    <       0.00000001 Ry

     iteration # 11     ecut=    90.00 Ry     beta= 0.20
     Davidson diagonalization with overlap
     ethr =  1.33E-10,  avg # of iterations =  1.0

     total cpu time spent up to now is        3.7 secs

     End of self-consistent calculation

          k = 0.0000 0.0000 0.0000 (  1917 PWs)   bands (ev):

   -10.0521   5.3694   5.3694   5.3694

          k =-0.2500 0.2500-0.2500 (  1916 PWs)   bands (ev):

    -8.9408   0.6412   4.3796   4.3796

          k = 0.5000-0.5000 0.5000 (  1916 PWs)   bands (ev):

    -6.7924  -3.3680   3.7272   3.7272

          k = 0.0000 0.5000 0.0000 (  1924 PWs)   bands (ev):

    -8.5565   1.0603   3.0683   3.0683

          k = 0.7500-0.2500 0.7500 (  1913 PWs)   bands (ev):

    -6.3092  -2.5736   1.1863   2.5849

          k = 0.5000 0.0000 0.5000 (  1923 PWs)   bands (ev):

    -7.2266  -1.4076   0.9516   3.6372

          k = 0.0000-1.0000 0.0000 (  1924 PWs)   bands (ev):

    -4.4300  -4.4300   1.7501   1.7501

          k =-0.5000-1.0000 0.0000 (  1912 PWs)   bands (ev):

    -4.2095  -4.2095   0.7949   0.7949

     highest occupied level (ev):     5.3694

!    total energy              =     -36.61890023 Ry
     Harris-Foulkes estimate   =     -36.61890023 Ry
     estimated scf accuracy    <          2.0E-09 Ry

     total all-electron energy =      -152.147095 Ry

     The total energy is the sum of the following terms:

     one-electron contribution =       2.94954447 Ry
     hartree contribution      =       2.63580720 Ry
     xc contribution           =      -8.59800710 Ry
     ewald contribution        =     -21.28117746 Ry
     one-center paw contrib.   =     -12.32506734 Ry

     convergence has been achieved in  11 iterations

     Writing output data file diamond.save/

     init_run     :      0.45s CPU      0.36s WALL (       1 calls)
     electrons    :      6.85s CPU      3.20s WALL (       1 calls)

     Called by init_run:
     wfcinit      :      0.22s CPU      0.13s WALL (       1 calls)
     potinit      :      0.06s CPU      0.06s WALL (       1 calls)
     hinit0       :      0.15s CPU      0.15s WALL (       1 calls)

     Called by electrons:
     c_bands      :      3.48s CPU      1.65s WALL (      11 calls)
     sum_band     :      1.10s CPU      0.44s WALL (      11 calls)
     v_of_rho     :      0.56s CPU      0.25s WALL (      12 calls)
     newd         :      0.15s CPU      0.14s WALL (      12 calls)
     PAW_pot      :      1.53s CPU      0.75s WALL (      12 calls)
     mix_rho      :      0.08s CPU      0.03s WALL (      11 calls)

     Called by c_bands:
     init_us_2    :      0.15s CPU      0.06s WALL (     184 calls)
     cegterg      :      3.21s CPU      1.54s WALL (      88 calls)

     Called by sum_band:
     sum_band:bec :      0.00s CPU      0.00s WALL (      88 calls)
     addusdens    :      0.29s CPU      0.10s WALL (      11 calls)

     Called by *egterg:
     h_psi        :      3.06s CPU      1.48s WALL (     265 calls)
     s_psi        :      0.08s CPU      0.05s WALL (     265 calls)
     g_psi        :      0.02s CPU      0.01s WALL (     169 calls)
     cdiaghg      :      0.04s CPU      0.02s WALL (     257 calls)

     Called by h_psi:
     h_psi:pot    :      3.05s CPU      1.48s WALL (     265 calls)
     h_psi:calbec :      0.47s CPU      0.42s WALL (     265 calls)
     vloc_psi     :      2.49s CPU      1.02s WALL (     265 calls)
     add_vuspsi   :      0.09s CPU      0.04s WALL (     265 calls)

     General routines
     calbec       :      0.58s CPU      0.48s WALL (     353 calls)
     fft          :      0.26s CPU      0.11s WALL (     132 calls)
     ffts         :      0.03s CPU      0.01s WALL (      11 calls)
     fftw         :      2.61s CPU      1.07s WALL (    2378 calls)

     Parallel routines

     PWSCF        :      7.50s CPU      3.75s WALL


   This run was terminated on:  20:22:56  12May2023            

=------------------------------------------------------------------------------=
   JOB DONE.
=------------------------------------------------------------------------------=
