
     Program PWSCF v.6.4.1 starts on 12May2023 at 20:22:23 

     This program is part of the open-source Quantum ESPRESSO suite
     for quantum simulation of materials; please cite
         "P. Giannozzi et al., J. Phys.:Condens. Matter 21 395502 (2009);
         "P. Giannozzi et al., J. Phys.:Condens. Matter 29 465901 (2017);
          URL http://www.quantum-espresso.org", 
     in publications or presentations arising from this work. More details at
     http://www.quantum-espresso.org/quote

     Parallel version (MPI), running on     1 processors

     MPI processes distributed on     1 nodes
     Waiting for input...
     Reading input from standard input

     Current dimensions of program PWSCF are:
     Max number of different atomic species (ntypx) = 10
     Max number of k-points (npk) =  40000
     Max angular momentum in pseudopotentials (lmaxx) =  3
               file C.pbe-n-kjpaw_psl.1.0.0.UPF: wavefunction(s)  2S 2P renormalized

     Subspace diagonalization in iterative solution of the eigenvalue problem:
     a serial algorithm will be used


     G-vector sticks info
     --------------------
     sticks:   dense  smooth     PW     G-vecs:    dense   smooth      PW
     Sum         673     673    199                11647    11647    1917



     bravais-lattice index     =            2
     lattice parameter (alat)  =       7.4000  a.u.
     unit-cell volume          =     101.3060 (a.u.)^3
     number of atoms/cell      =            2
     number of atomic types    =            1
     number of electrons       =         8.00
     number of Kohn-Sham states=            4
     kinetic-energy cutoff     =      90.0000  Ry
     charge density cutoff     =     360.0000  Ry
     convergence threshold     =      1.0E-08
     mixing beta               =       0.2000
     number of iterations used =            8  plain     mixing
     Exchange-correlation      = SLA PW PBX PBC ( 1  4  3  4 0 0)

     celldm(1)=   7.400000  celldm(2)=   0.000000  celldm(3)=   0.000000
     celldm(4)=   0.000000  celldm(5)=   0.000000  celldm(6)=   0.000000

     crystal axes: (cart. coord. in units of alat)
               a(1) = (  -0.500000   0.000000   0.500000 )  
               a(2) = (   0.000000   0.500000   0.500000 )  
               a(3) = (  -0.500000   0.500000   0.000000 )  

     reciprocal axes: (cart. coord. in units 2 pi/alat)
               b(1) = ( -1.000000 -1.000000  1.000000 )  
               b(2) = (  1.000000  1.000000  1.000000 )  
               b(3) = ( -1.000000  1.000000 -1.000000 )  


     PseudoPot. # 1 for C  read from file:
     ../../pseudo/C.pbe-n-kjpaw_psl.1.0.0.UPF
     MD5 check sum: 5f16ad9a65e90284d1d834d4ab3b0f7d
     Pseudo is Projector augmented-wave + core cor, Zval =  4.0
     Generated using "atomic" code by A. Dal Corso v.6.3
     Shape of augmentation charge: PSQ
     Using radial grid of 1073 points,  4 beta functions with: 
                l(1) =   0
                l(2) =   0
                l(3) =   1
                l(4) =   1
     Q(r) pseudized with 0 coefficients 


     atomic species   valence    mass     pseudopotential
        C              4.00    12.00000     C ( 1.00)

     48 Sym. Ops., with inversion, found (36 have fractional translation)



   Cartesian axes

     site n.     atom                  positions (alat units)
         1           C   tau(   1) = (  -0.1250000   0.1250000   0.1250000  )
         2           C   tau(   2) = (  -0.8750000   0.8750000   0.8750000  )

     number of k points=     8
                       cart. coord. in units 2pi/alat
        k(    1) = (   0.0000000   0.0000000   0.0000000), wk =   0.0312500
        k(    2) = (  -0.2500000   0.2500000  -0.2500000), wk =   0.2500000
        k(    3) = (   0.5000000  -0.5000000   0.5000000), wk =   0.1250000
        k(    4) = (   0.0000000   0.5000000   0.0000000), wk =   0.1875000
        k(    5) = (   0.7500000  -0.2500000   0.7500000), wk =   0.7500000
        k(    6) = (   0.5000000   0.0000000   0.5000000), wk =   0.3750000
        k(    7) = (   0.0000000  -1.0000000   0.0000000), wk =   0.0937500
        k(    8) = (  -0.5000000  -1.0000000   0.0000000), wk =   0.1875000

     Dense  grid:    11647 G-vectors     FFT dimensions: (  32,  32,  32)

     Estimated max dynamical RAM per process >      16.76 MB

     Check: negative core charge=   -0.000012

     Initial potential from superposition of free atoms

     starting charge    7.99992, renormalised to    8.00000
     Starting wfcs are    8 randomized atomic wfcs
     Checking if some PAW data can be deallocated... 

     total cpu time spent up to now is        0.4 secs

     Self-consistent Calculation

     iteration #  1     ecut=    90.00 Ry     beta= 0.20
     Davidson diagonalization with overlap
     ethr =  1.00E-04,  avg # of iterations =  3.9

     total cpu time spent up to now is        0.6 secs

     total energy              =     -36.79493567 Ry
     Harris-Foulkes estimate   =     -36.80324501 Ry
     estimated scf accuracy    <       0.06070295 Ry

     iteration #  2     ecut=    90.00 Ry     beta= 0.20
     Davidson diagonalization with overlap
     ethr =  7.59E-04,  avg # of iterations =  1.0

     total cpu time spent up to now is        0.8 secs

     total energy              =     -36.78408306 Ry
     Harris-Foulkes estimate   =     -36.79526557 Ry
     estimated scf accuracy    <       0.03504152 Ry

     iteration #  3     ecut=    90.00 Ry     beta= 0.20
     Davidson diagonalization with overlap
     ethr =  4.38E-04,  avg # of iterations =  1.1

     total cpu time spent up to now is        0.9 secs

     total energy              =     -36.78662075 Ry
     Harris-Foulkes estimate   =     -36.78663258 Ry
     estimated scf accuracy    <       0.00052579 Ry

     iteration #  4     ecut=    90.00 Ry     beta= 0.20
     Davidson diagonalization with overlap
     ethr =  6.57E-06,  avg # of iterations =  2.0

     total cpu time spent up to now is        1.1 secs

     total energy              =     -36.78674507 Ry
     Harris-Foulkes estimate   =     -36.78675610 Ry
     estimated scf accuracy    <       0.00002333 Ry

     iteration #  5     ecut=    90.00 Ry     beta= 0.20
     Davidson diagonalization with overlap
     ethr =  2.92E-07,  avg # of iterations =  2.6

     total cpu time spent up to now is        1.3 secs

     total energy              =     -36.78675275 Ry
     Harris-Foulkes estimate   =     -36.78675270 Ry
     estimated scf accuracy    <       0.00000062 Ry

     iteration #  6     ecut=    90.00 Ry     beta= 0.20
     Davidson diagonalization with overlap
     ethr =  7.76E-09,  avg # of iterations =  2.8

     total cpu time spent up to now is        1.5 secs

     total energy              =     -36.78675357 Ry
     Harris-Foulkes estimate   =     -36.78675300 Ry
     estimated scf accuracy    <       0.00000030 Ry

     iteration #  7     ecut=    90.00 Ry     beta= 0.20
     Davidson diagonalization with overlap
     ethr =  3.70E-09,  avg # of iterations =  2.0

     total cpu time spent up to now is        1.8 secs

     total energy              =     -36.78675344 Ry
     Harris-Foulkes estimate   =     -36.78675365 Ry
     estimated scf accuracy    <       0.00000040 Ry

     iteration #  8     ecut=    90.00 Ry     beta= 0.20
     Davidson diagonalization with overlap
     ethr =  3.70E-09,  avg # of iterations =  2.0

     total cpu time spent up to now is        2.0 secs

     End of self-consistent calculation

          k = 0.0000 0.0000 0.0000 (  1459 PWs)   bands (ev):

    -9.2347   8.8459   8.8459   8.8459

          k =-0.2500 0.2500-0.2500 (  1453 PWs)   bands (ev):

    -7.8427   3.3942   7.5276   7.5276

          k = 0.5000-0.5000 0.5000 (  1476 PWs)   bands (ev):

    -4.8866  -1.8210   6.6942   6.6942

          k = 0.0000 0.5000 0.0000 (  1475 PWs)   bands (ev):

    -7.3733   4.5513   5.7571   5.7571

          k = 0.7500-0.2500 0.7500 (  1467 PWs)   bands (ev):

    -4.4511  -0.2189   3.4854   5.1507

          k = 0.5000 0.0000 0.5000 (  1464 PWs)   bands (ev):

    -5.6514   1.3227   3.0082   6.5555

          k = 0.0000-1.0000 0.0000 (  1428 PWs)   bands (ev):

    -2.1933  -2.1933   4.0578   4.0578

          k =-0.5000-1.0000 0.0000 (  1448 PWs)   bands (ev):

    -1.7623  -1.7623   2.6583   2.6583

     highest occupied level (ev):     8.8459

!    total energy              =     -36.78675349 Ry
     Harris-Foulkes estimate   =     -36.78675348 Ry
     estimated scf accuracy    <          1.2E-09 Ry

     total all-electron energy =      -152.314948 Ry

     The total energy is the sum of the following terms:

     one-electron contribution =       5.50142612 Ry
     hartree contribution      =       2.27100329 Ry
     xc contribution           =      -8.94663260 Ry
     ewald contribution        =     -23.29426181 Ry
     one-center paw contrib.   =     -12.31828848 Ry

     convergence has been achieved in   8 iterations

     Writing output data file diamond.save/

     init_run     :      0.27s CPU      0.22s WALL (       1 calls)
     electrons    :      3.26s CPU      1.61s WALL (       1 calls)

     Called by init_run:
     wfcinit      :      0.08s CPU      0.03s WALL (       1 calls)
     potinit      :      0.05s CPU      0.05s WALL (       1 calls)
     hinit0       :      0.13s CPU      0.13s WALL (       1 calls)

     Called by electrons:
     c_bands      :      1.17s CPU      0.63s WALL (       8 calls)
     sum_band     :      0.44s CPU      0.19s WALL (       8 calls)
     v_of_rho     :      0.32s CPU      0.14s WALL (       9 calls)
     newd         :      0.12s CPU      0.08s WALL (       9 calls)
     PAW_pot      :      1.23s CPU      0.61s WALL (       9 calls)
     mix_rho      :      0.02s CPU      0.01s WALL (       8 calls)

     Called by c_bands:
     init_us_2    :      0.08s CPU      0.03s WALL (     136 calls)
     cegterg      :      1.03s CPU      0.57s WALL (      64 calls)

     Called by sum_band:
     sum_band:bec :      0.00s CPU      0.00s WALL (      64 calls)
     addusdens    :      0.10s CPU      0.05s WALL (       8 calls)

     Called by *egterg:
     h_psi        :      0.92s CPU      0.51s WALL (     211 calls)
     s_psi        :      0.05s CPU      0.02s WALL (     211 calls)
     g_psi        :      0.01s CPU      0.00s WALL (     139 calls)
     cdiaghg      :      0.02s CPU      0.01s WALL (     203 calls)

     Called by h_psi:
     h_psi:pot    :      0.92s CPU      0.51s WALL (     211 calls)
     h_psi:calbec :      0.34s CPU      0.27s WALL (     211 calls)
     vloc_psi     :      0.55s CPU      0.22s WALL (     211 calls)
     add_vuspsi   :      0.03s CPU      0.01s WALL (     211 calls)

     General routines
     calbec       :      0.45s CPU      0.34s WALL (     275 calls)
     fft          :      0.03s CPU      0.02s WALL (      99 calls)
     ffts         :      0.00s CPU      0.00s WALL (       8 calls)
     fftw         :      0.45s CPU      0.18s WALL (    1850 calls)

     Parallel routines

     PWSCF        :      3.73s CPU      2.02s WALL


   This run was terminated on:  20:22:25  12May2023            

=------------------------------------------------------------------------------=
   JOB DONE.
=------------------------------------------------------------------------------=
