
     Program PWSCF v.6.4.1 starts on 12May2023 at 20:21:42 

     This program is part of the open-source Quantum ESPRESSO suite
     for quantum simulation of materials; please cite
         "P. Giannozzi et al., J. Phys.:Condens. Matter 21 395502 (2009);
         "P. Giannozzi et al., J. Phys.:Condens. Matter 29 465901 (2017);
          URL http://www.quantum-espresso.org", 
     in publications or presentations arising from this work. More details at
     http://www.quantum-espresso.org/quote

     Parallel version (MPI), running on     1 processors

     MPI processes distributed on     1 nodes
     Waiting for input...
     Reading input from standard input

     Current dimensions of program PWSCF are:
     Max number of different atomic species (ntypx) = 10
     Max number of k-points (npk) =  40000
     Max angular momentum in pseudopotentials (lmaxx) =  3
               file C.pbe-n-kjpaw_psl.1.0.0.UPF: wavefunction(s)  2S 2P renormalized

     Subspace diagonalization in iterative solution of the eigenvalue problem:
     a serial algorithm will be used


     G-vector sticks info
     --------------------
     sticks:   dense  smooth     PW     G-vecs:    dense   smooth      PW
     Sum         463     463    151                 6567     6567    1139



     bravais-lattice index     =            2
     lattice parameter (alat)  =       6.1000  a.u.
     unit-cell volume          =      56.7452 (a.u.)^3
     number of atoms/cell      =            2
     number of atomic types    =            1
     number of electrons       =         8.00
     number of Kohn-Sham states=            4
     kinetic-energy cutoff     =      90.0000  Ry
     charge density cutoff     =     360.0000  Ry
     convergence threshold     =      1.0E-08
     mixing beta               =       0.2000
     number of iterations used =            8  plain     mixing
     Exchange-correlation      = SLA PW PBX PBC ( 1  4  3  4 0 0)

     celldm(1)=   6.100000  celldm(2)=   0.000000  celldm(3)=   0.000000
     celldm(4)=   0.000000  celldm(5)=   0.000000  celldm(6)=   0.000000

     crystal axes: (cart. coord. in units of alat)
               a(1) = (  -0.500000   0.000000   0.500000 )  
               a(2) = (   0.000000   0.500000   0.500000 )  
               a(3) = (  -0.500000   0.500000   0.000000 )  

     reciprocal axes: (cart. coord. in units 2 pi/alat)
               b(1) = ( -1.000000 -1.000000  1.000000 )  
               b(2) = (  1.000000  1.000000  1.000000 )  
               b(3) = ( -1.000000  1.000000 -1.000000 )  


     PseudoPot. # 1 for C  read from file:
     ../../pseudo/C.pbe-n-kjpaw_psl.1.0.0.UPF
     MD5 check sum: 5f16ad9a65e90284d1d834d4ab3b0f7d
     Pseudo is Projector augmented-wave + core cor, Zval =  4.0
     Generated using "atomic" code by A. Dal Corso v.6.3
     Shape of augmentation charge: PSQ
     Using radial grid of 1073 points,  4 beta functions with: 
                l(1) =   0
                l(2) =   0
                l(3) =   1
                l(4) =   1
     Q(r) pseudized with 0 coefficients 


     atomic species   valence    mass     pseudopotential
        C              4.00    12.00000     C ( 1.00)

     48 Sym. Ops., with inversion, found (36 have fractional translation)



   Cartesian axes

     site n.     atom                  positions (alat units)
         1           C   tau(   1) = (  -0.1250000   0.1250000   0.1250000  )
         2           C   tau(   2) = (  -0.8750000   0.8750000   0.8750000  )

     number of k points=     8
                       cart. coord. in units 2pi/alat
        k(    1) = (   0.0000000   0.0000000   0.0000000), wk =   0.0312500
        k(    2) = (  -0.2500000   0.2500000  -0.2500000), wk =   0.2500000
        k(    3) = (   0.5000000  -0.5000000   0.5000000), wk =   0.1250000
        k(    4) = (   0.0000000   0.5000000   0.0000000), wk =   0.1875000
        k(    5) = (   0.7500000  -0.2500000   0.7500000), wk =   0.7500000
        k(    6) = (   0.5000000   0.0000000   0.5000000), wk =   0.3750000
        k(    7) = (   0.0000000  -1.0000000   0.0000000), wk =   0.0937500
        k(    8) = (  -0.5000000  -1.0000000   0.0000000), wk =   0.1875000

     Dense  grid:     6567 G-vectors     FFT dimensions: (  30,  30,  30)

     Estimated max dynamical RAM per process >      10.17 MB

     Check: negative core charge=   -0.000013

     Initial potential from superposition of free atoms

     starting charge    7.99992, renormalised to    8.00000
     Starting wfcs are    8 randomized atomic wfcs
     Checking if some PAW data can be deallocated... 

     total cpu time spent up to now is        0.4 secs

     Self-consistent Calculation

     iteration #  1     ecut=    90.00 Ry     beta= 0.20
     Davidson diagonalization with overlap
     ethr =  1.00E-04,  avg # of iterations =  3.9

     total cpu time spent up to now is        0.7 secs

     total energy              =     -36.78381629 Ry
     Harris-Foulkes estimate   =     -36.83231489 Ry
     estimated scf accuracy    <       0.22334275 Ry

     iteration #  2     ecut=    90.00 Ry     beta= 0.20
     Davidson diagonalization with overlap
     ethr =  2.79E-03,  avg # of iterations =  1.0

     total cpu time spent up to now is        1.0 secs

     total energy              =     -36.71835540 Ry
     Harris-Foulkes estimate   =     -36.78528573 Ry
     estimated scf accuracy    <       0.12556732 Ry

     iteration #  3     ecut=    90.00 Ry     beta= 0.20
     Davidson diagonalization with overlap
     ethr =  1.57E-03,  avg # of iterations =  1.9

     total cpu time spent up to now is        1.3 secs

     total energy              =     -36.73120337 Ry
     Harris-Foulkes estimate   =     -36.73121289 Ry
     estimated scf accuracy    <       0.00043653 Ry

     iteration #  4     ecut=    90.00 Ry     beta= 0.20
     Davidson diagonalization with overlap
     ethr =  5.46E-06,  avg # of iterations =  2.8

     total cpu time spent up to now is        1.5 secs

     total energy              =     -36.73162506 Ry
     Harris-Foulkes estimate   =     -36.73162340 Ry
     estimated scf accuracy    <       0.00011697 Ry

     iteration #  5     ecut=    90.00 Ry     beta= 0.20
     Davidson diagonalization with overlap
     ethr =  1.46E-06,  avg # of iterations =  1.5

     total cpu time spent up to now is        1.7 secs

     total energy              =     -36.73163537 Ry
     Harris-Foulkes estimate   =     -36.73163495 Ry
     estimated scf accuracy    <       0.00000450 Ry

     iteration #  6     ecut=    90.00 Ry     beta= 0.20
     Davidson diagonalization with overlap
     ethr =  5.62E-08,  avg # of iterations =  2.0

     total cpu time spent up to now is        1.8 secs

     total energy              =     -36.73163517 Ry
     Harris-Foulkes estimate   =     -36.73163589 Ry
     estimated scf accuracy    <       0.00000285 Ry

     iteration #  7     ecut=    90.00 Ry     beta= 0.20
     Davidson diagonalization with overlap
     ethr =  3.56E-08,  avg # of iterations =  2.0

     total cpu time spent up to now is        2.0 secs

     total energy              =     -36.73163544 Ry
     Harris-Foulkes estimate   =     -36.73163544 Ry
     estimated scf accuracy    <       0.00000003 Ry

     iteration #  8     ecut=    90.00 Ry     beta= 0.20
     Davidson diagonalization with overlap
     ethr =  4.31E-10,  avg # of iterations =  2.2

     total cpu time spent up to now is        2.2 secs

     total energy              =     -36.73163544 Ry
     Harris-Foulkes estimate   =     -36.73163544 Ry
     estimated scf accuracy    <       0.00000003 Ry

     iteration #  9     ecut=    90.00 Ry     beta= 0.20
     Davidson diagonalization with overlap
     ethr =  3.34E-10,  avg # of iterations =  1.0

     total cpu time spent up to now is        2.4 secs

     End of self-consistent calculation

          k = 0.0000 0.0000 0.0000 (   869 PWs)   bands (ev):

    -6.4692  19.5008  19.5008  19.5008

          k =-0.2500 0.2500-0.2500 (   821 PWs)   bands (ev):

    -4.3797  11.2682  17.1646  17.1646

          k = 0.5000-0.5000 0.5000 (   832 PWs)   bands (ev):

     1.2696   2.2930  15.8241  15.8241

          k = 0.0000 0.5000 0.0000 (   833 PWs)   bands (ev):

    -3.6867  13.9450  13.9450  14.5383

          k = 0.7500-0.2500 0.7500 (   818 PWs)   bands (ev):

     1.0220   6.2078  11.0339  12.9986

          k = 0.5000 0.0000 0.5000 (   819 PWs)   bands (ev):

    -0.9703   9.0396   9.6106  15.4989

          k = 0.0000-1.0000 0.0000 (   790 PWs)   bands (ev):

     4.2803   4.2803  11.1329  11.1329

          k =-0.5000-1.0000 0.0000 (   792 PWs)   bands (ev):

     5.6994   5.6994   8.1973   8.1973

     highest occupied level (ev):    19.5008

!    total energy              =     -36.73163544 Ry
     Harris-Foulkes estimate   =     -36.73163544 Ry
     estimated scf accuracy    <          5.1E-09 Ry

     total all-electron energy =      -152.259830 Ry

     The total energy is the sum of the following terms:

     one-electron contribution =      12.13531149 Ry
     hartree contribution      =       1.66945859 Ry
     xc contribution           =      -9.93495197 Ry
     ewald contribution        =     -28.25861271 Ry
     one-center paw contrib.   =     -12.34284084 Ry

     convergence has been achieved in   9 iterations

     Writing output data file diamond.save/

     init_run     :      0.33s CPU      0.24s WALL (       1 calls)
     electrons    :      4.52s CPU      1.96s WALL (       1 calls)

     Called by init_run:
     wfcinit      :      0.13s CPU      0.06s WALL (       1 calls)
     potinit      :      0.05s CPU      0.05s WALL (       1 calls)
     hinit0       :      0.12s CPU      0.12s WALL (       1 calls)

     Called by electrons:
     c_bands      :      2.06s CPU      0.92s WALL (       9 calls)
     sum_band     :      0.67s CPU      0.26s WALL (       9 calls)
     v_of_rho     :      0.37s CPU      0.16s WALL (      10 calls)
     newd         :      0.07s CPU      0.04s WALL (      10 calls)
     PAW_pot      :      1.39s CPU      0.62s WALL (      10 calls)
     mix_rho      :      0.03s CPU      0.01s WALL (       9 calls)

     Called by c_bands:
     init_us_2    :      0.05s CPU      0.02s WALL (     152 calls)
     cegterg      :      1.97s CPU      0.88s WALL (      72 calls)

     Called by sum_band:
     sum_band:bec :      0.00s CPU      0.00s WALL (      72 calls)
     addusdens    :      0.11s CPU      0.03s WALL (       9 calls)

     Called by *egterg:
     h_psi        :      1.97s CPU      0.87s WALL (     226 calls)
     s_psi        :      0.02s CPU      0.02s WALL (     226 calls)
     g_psi        :      0.01s CPU      0.00s WALL (     146 calls)
     cdiaghg      :      0.03s CPU      0.02s WALL (     218 calls)

     Called by h_psi:
     h_psi:pot    :      1.97s CPU      0.87s WALL (     226 calls)
     h_psi:calbec :      0.26s CPU      0.19s WALL (     226 calls)
     vloc_psi     :      1.69s CPU      0.67s WALL (     226 calls)
     add_vuspsi   :      0.02s CPU      0.01s WALL (     226 calls)

     General routines
     calbec       :      0.38s CPU      0.26s WALL (     298 calls)
     fft          :      0.26s CPU      0.11s WALL (     110 calls)
     ffts         :      0.02s CPU      0.01s WALL (       9 calls)
     fftw         :      1.86s CPU      0.73s WALL (    1938 calls)

     Parallel routines

     PWSCF        :      5.04s CPU      2.38s WALL


   This run was terminated on:  20:21:44  12May2023            

=------------------------------------------------------------------------------=
   JOB DONE.
=------------------------------------------------------------------------------=
