
     Program PWSCF v.6.4.1 starts on 12May2023 at 20:21:13 

     This program is part of the open-source Quantum ESPRESSO suite
     for quantum simulation of materials; please cite
         "P. Giannozzi et al., J. Phys.:Condens. Matter 21 395502 (2009);
         "P. Giannozzi et al., J. Phys.:Condens. Matter 29 465901 (2017);
          URL http://www.quantum-espresso.org", 
     in publications or presentations arising from this work. More details at
     http://www.quantum-espresso.org/quote

     Parallel version (MPI), running on     1 processors

     MPI processes distributed on     1 nodes
     Waiting for input...
     Reading input from standard input

     Current dimensions of program PWSCF are:
     Max number of different atomic species (ntypx) = 10
     Max number of k-points (npk) =  40000
     Max angular momentum in pseudopotentials (lmaxx) =  3
               file C.pbe-n-kjpaw_psl.1.0.0.UPF: wavefunction(s)  2S 2P renormalized

     Subspace diagonalization in iterative solution of the eigenvalue problem:
     a serial algorithm will be used


     G-vector sticks info
     --------------------
     sticks:   dense  smooth     PW     G-vecs:    dense   smooth      PW
     Sum         313     313    109                 3839     3839     725



     bravais-lattice index     =            2
     lattice parameter (alat)  =       5.1000  a.u.
     unit-cell volume          =      33.1627 (a.u.)^3
     number of atoms/cell      =            2
     number of atomic types    =            1
     number of electrons       =         8.00
     number of Kohn-Sham states=            4
     kinetic-energy cutoff     =      90.0000  Ry
     charge density cutoff     =     360.0000  Ry
     convergence threshold     =      1.0E-08
     mixing beta               =       0.2000
     number of iterations used =            8  plain     mixing
     Exchange-correlation      = SLA PW PBX PBC ( 1  4  3  4 0 0)

     celldm(1)=   5.100000  celldm(2)=   0.000000  celldm(3)=   0.000000
     celldm(4)=   0.000000  celldm(5)=   0.000000  celldm(6)=   0.000000

     crystal axes: (cart. coord. in units of alat)
               a(1) = (  -0.500000   0.000000   0.500000 )  
               a(2) = (   0.000000   0.500000   0.500000 )  
               a(3) = (  -0.500000   0.500000   0.000000 )  

     reciprocal axes: (cart. coord. in units 2 pi/alat)
               b(1) = ( -1.000000 -1.000000  1.000000 )  
               b(2) = (  1.000000  1.000000  1.000000 )  
               b(3) = ( -1.000000  1.000000 -1.000000 )  


     PseudoPot. # 1 for C  read from file:
     ../../pseudo/C.pbe-n-kjpaw_psl.1.0.0.UPF
     MD5 check sum: 5f16ad9a65e90284d1d834d4ab3b0f7d
     Pseudo is Projector augmented-wave + core cor, Zval =  4.0
     Generated using "atomic" code by A. Dal Corso v.6.3
     Shape of augmentation charge: PSQ
     Using radial grid of 1073 points,  4 beta functions with: 
                l(1) =   0
                l(2) =   0
                l(3) =   1
                l(4) =   1
     Q(r) pseudized with 0 coefficients 


     atomic species   valence    mass     pseudopotential
        C              4.00    12.00000     C ( 1.00)

     48 Sym. Ops., with inversion, found (36 have fractional translation)



   Cartesian axes

     site n.     atom                  positions (alat units)
         1           C   tau(   1) = (  -0.1250000   0.1250000   0.1250000  )
         2           C   tau(   2) = (  -0.8750000   0.8750000   0.8750000  )

     number of k points=     8
                       cart. coord. in units 2pi/alat
        k(    1) = (   0.0000000   0.0000000   0.0000000), wk =   0.0312500
        k(    2) = (  -0.2500000   0.2500000  -0.2500000), wk =   0.2500000
        k(    3) = (   0.5000000  -0.5000000   0.5000000), wk =   0.1250000
        k(    4) = (   0.0000000   0.5000000   0.0000000), wk =   0.1875000
        k(    5) = (   0.7500000  -0.2500000   0.7500000), wk =   0.7500000
        k(    6) = (   0.5000000   0.0000000   0.5000000), wk =   0.3750000
        k(    7) = (   0.0000000  -1.0000000   0.0000000), wk =   0.0937500
        k(    8) = (  -0.5000000  -1.0000000   0.0000000), wk =   0.1875000

     Dense  grid:     3839 G-vectors     FFT dimensions: (  24,  24,  24)

     Estimated max dynamical RAM per process >       5.91 MB

     Check: negative core charge=   -0.000011

     Initial potential from superposition of free atoms

     starting charge    7.99992, renormalised to    8.00000
     Starting wfcs are    8 randomized atomic wfcs
     Checking if some PAW data can be deallocated... 

     total cpu time spent up to now is        0.4 secs

     Self-consistent Calculation

     iteration #  1     ecut=    90.00 Ry     beta= 0.20
     Davidson diagonalization with overlap
     ethr =  1.00E-04,  avg # of iterations =  3.9

     total cpu time spent up to now is        0.6 secs

     total energy              =     -35.72704567 Ry
     Harris-Foulkes estimate   =     -35.84311855 Ry
     estimated scf accuracy    <       0.46811964 Ry

     iteration #  2     ecut=    90.00 Ry     beta= 0.20
     Davidson diagonalization with overlap
     ethr =  5.85E-03,  avg # of iterations =  1.0

     total cpu time spent up to now is        0.7 secs

     total energy              =     -35.56862108 Ry
     Harris-Foulkes estimate   =     -35.73020039 Ry
     estimated scf accuracy    <       0.26435636 Ry

     iteration #  3     ecut=    90.00 Ry     beta= 0.20
     Davidson diagonalization with overlap
     ethr =  3.30E-03,  avg # of iterations =  2.0

     total cpu time spent up to now is        0.8 secs

     total energy              =     -35.59735338 Ry
     Harris-Foulkes estimate   =     -35.59737794 Ry
     estimated scf accuracy    <       0.00035388 Ry

     iteration #  4     ecut=    90.00 Ry     beta= 0.20
     Davidson diagonalization with overlap
     ethr =  4.42E-06,  avg # of iterations =  3.1

     total cpu time spent up to now is        0.9 secs

     total energy              =     -35.59821748 Ry
     Harris-Foulkes estimate   =     -35.59821871 Ry
     estimated scf accuracy    <       0.00017858 Ry

     iteration #  5     ecut=    90.00 Ry     beta= 0.20
     Davidson diagonalization with overlap
     ethr =  2.23E-06,  avg # of iterations =  2.0

     total cpu time spent up to now is        1.1 secs

     total energy              =     -35.59823345 Ry
     Harris-Foulkes estimate   =     -35.59823845 Ry
     estimated scf accuracy    <       0.00002889 Ry

     iteration #  6     ecut=    90.00 Ry     beta= 0.20
     Davidson diagonalization with overlap
     ethr =  3.61E-07,  avg # of iterations =  1.0

     total cpu time spent up to now is        1.2 secs

     total energy              =     -35.59823312 Ry
     Harris-Foulkes estimate   =     -35.59823455 Ry
     estimated scf accuracy    <       0.00000499 Ry

     iteration #  7     ecut=    90.00 Ry     beta= 0.20
     Davidson diagonalization with overlap
     ethr =  6.24E-08,  avg # of iterations =  1.1

     total cpu time spent up to now is        1.3 secs

     End of self-consistent calculation

          k = 0.0000 0.0000 0.0000 (   531 PWs)   bands (ev):

    -1.7579  34.7219  34.7219  34.7219

          k =-0.2500 0.2500-0.2500 (   483 PWs)   bands (ev):

     1.0017  22.4871  30.8966  30.8966

          k = 0.5000-0.5000 0.5000 (   476 PWs)   bands (ev):

     7.7755  10.9976  28.9090  28.9090

          k = 0.0000 0.5000 0.0000 (   480 PWs)   bands (ev):

     1.9745  25.5324  25.5324  28.5385

          k = 0.7500-0.2500 0.7500 (   477 PWs)   bands (ev):

     8.3246  15.4936  22.3276  24.1461

          k = 0.5000 0.0000 0.5000 (   481 PWs)   bands (ev):

     5.5646  19.6706  19.8550  28.2448

          k = 0.0000-1.0000 0.0000 (   468 PWs)   bands (ev):

    13.2084  13.2084  21.1968  21.1968

          k =-0.5000-1.0000 0.0000 (   488 PWs)   bands (ev):

    15.8003  15.8003  16.7720  16.7720

     highest occupied level (ev):    34.7219

!    total energy              =     -35.59823347 Ry
     Harris-Foulkes estimate   =     -35.59823346 Ry
     estimated scf accuracy    <          5.1E-09 Ry

     total all-electron energy =      -151.126428 Ry

     The total energy is the sum of the following terms:

     one-electron contribution =      20.52711769 Ry
     hartree contribution      =       1.23737768 Ry
     xc contribution           =     -11.15327153 Ry
     ewald contribution        =     -33.79951714 Ry
     one-center paw contrib.   =     -12.40994017 Ry

     convergence has been achieved in   7 iterations

     Writing output data file diamond.save/

     init_run     :      0.40s CPU      0.28s WALL (       1 calls)
     electrons    :      2.05s CPU      0.90s WALL (       1 calls)

     Called by init_run:
     wfcinit      :      0.23s CPU      0.11s WALL (       1 calls)
     potinit      :      0.05s CPU      0.05s WALL (       1 calls)
     hinit0       :      0.11s CPU      0.11s WALL (       1 calls)

     Called by electrons:
     c_bands      :      0.50s CPU      0.25s WALL (       7 calls)
     sum_band     :      0.15s CPU      0.07s WALL (       7 calls)
     v_of_rho     :      0.11s CPU      0.04s WALL (       8 calls)
     newd         :      0.09s CPU      0.06s WALL (       8 calls)
     PAW_pot      :      1.24s CPU      0.53s WALL (       8 calls)
     mix_rho      :      0.01s CPU      0.00s WALL (       7 calls)

     Called by c_bands:
     init_us_2    :      0.03s CPU      0.01s WALL (     120 calls)
     cegterg      :      0.46s CPU      0.23s WALL (      56 calls)

     Called by sum_band:
     sum_band:bec :      0.00s CPU      0.00s WALL (      56 calls)
     addusdens    :      0.03s CPU      0.02s WALL (       7 calls)

     Called by *egterg:
     h_psi        :      0.58s CPU      0.28s WALL (     177 calls)
     s_psi        :      0.02s CPU      0.01s WALL (     177 calls)
     g_psi        :      0.00s CPU      0.00s WALL (     113 calls)
     cdiaghg      :      0.03s CPU      0.02s WALL (     169 calls)

     Called by h_psi:
     h_psi:pot    :      0.57s CPU      0.28s WALL (     177 calls)
     h_psi:calbec :      0.13s CPU      0.08s WALL (     177 calls)
     vloc_psi     :      0.43s CPU      0.19s WALL (     177 calls)
     add_vuspsi   :      0.01s CPU      0.01s WALL (     177 calls)

     General routines
     calbec       :      0.14s CPU      0.09s WALL (     233 calls)
     fft          :      0.04s CPU      0.02s WALL (      88 calls)
     ffts         :      0.00s CPU      0.00s WALL (       7 calls)
     fftw         :      0.44s CPU      0.19s WALL (    1562 calls)

     Parallel routines

     PWSCF        :      2.62s CPU      1.35s WALL


   This run was terminated on:  20:21:14  12May2023            

=------------------------------------------------------------------------------=
   JOB DONE.
=------------------------------------------------------------------------------=
