
     Program PWSCF v.6.4.1 starts on 12May2023 at 20:21:49 

     This program is part of the open-source Quantum ESPRESSO suite
     for quantum simulation of materials; please cite
         "P. Giannozzi et al., J. Phys.:Condens. Matter 21 395502 (2009);
         "P. Giannozzi et al., J. Phys.:Condens. Matter 29 465901 (2017);
          URL http://www.quantum-espresso.org", 
     in publications or presentations arising from this work. More details at
     http://www.quantum-espresso.org/quote

     Parallel version (MPI), running on     1 processors

     MPI processes distributed on     1 nodes
     Waiting for input...
     Reading input from standard input

     Current dimensions of program PWSCF are:
     Max number of different atomic species (ntypx) = 10
     Max number of k-points (npk) =  40000
     Max angular momentum in pseudopotentials (lmaxx) =  3
               file C.pbe-n-kjpaw_psl.1.0.0.UPF: wavefunction(s)  2S 2P renormalized

     Subspace diagonalization in iterative solution of the eigenvalue problem:
     a serial algorithm will be used


     G-vector sticks info
     --------------------
     sticks:   dense  smooth     PW     G-vecs:    dense   smooth      PW
     Sum         499     499    151                 7239     7239    1243



     bravais-lattice index     =            2
     lattice parameter (alat)  =       6.3000  a.u.
     unit-cell volume          =      62.5117 (a.u.)^3
     number of atoms/cell      =            2
     number of atomic types    =            1
     number of electrons       =         8.00
     number of Kohn-Sham states=            4
     kinetic-energy cutoff     =      90.0000  Ry
     charge density cutoff     =     360.0000  Ry
     convergence threshold     =      1.0E-08
     mixing beta               =       0.2000
     number of iterations used =            8  plain     mixing
     Exchange-correlation      = SLA PW PBX PBC ( 1  4  3  4 0 0)

     celldm(1)=   6.300000  celldm(2)=   0.000000  celldm(3)=   0.000000
     celldm(4)=   0.000000  celldm(5)=   0.000000  celldm(6)=   0.000000

     crystal axes: (cart. coord. in units of alat)
               a(1) = (  -0.500000   0.000000   0.500000 )  
               a(2) = (   0.000000   0.500000   0.500000 )  
               a(3) = (  -0.500000   0.500000   0.000000 )  

     reciprocal axes: (cart. coord. in units 2 pi/alat)
               b(1) = ( -1.000000 -1.000000  1.000000 )  
               b(2) = (  1.000000  1.000000  1.000000 )  
               b(3) = ( -1.000000  1.000000 -1.000000 )  


     PseudoPot. # 1 for C  read from file:
     ../../pseudo/C.pbe-n-kjpaw_psl.1.0.0.UPF
     MD5 check sum: 5f16ad9a65e90284d1d834d4ab3b0f7d
     Pseudo is Projector augmented-wave + core cor, Zval =  4.0
     Generated using "atomic" code by A. Dal Corso v.6.3
     Shape of augmentation charge: PSQ
     Using radial grid of 1073 points,  4 beta functions with: 
                l(1) =   0
                l(2) =   0
                l(3) =   1
                l(4) =   1
     Q(r) pseudized with 0 coefficients 


     atomic species   valence    mass     pseudopotential
        C              4.00    12.00000     C ( 1.00)

     48 Sym. Ops., with inversion, found (36 have fractional translation)



   Cartesian axes

     site n.     atom                  positions (alat units)
         1           C   tau(   1) = (  -0.1250000   0.1250000   0.1250000  )
         2           C   tau(   2) = (  -0.8750000   0.8750000   0.8750000  )

     number of k points=     8
                       cart. coord. in units 2pi/alat
        k(    1) = (   0.0000000   0.0000000   0.0000000), wk =   0.0312500
        k(    2) = (  -0.2500000   0.2500000  -0.2500000), wk =   0.2500000
        k(    3) = (   0.5000000  -0.5000000   0.5000000), wk =   0.1250000
        k(    4) = (   0.0000000   0.5000000   0.0000000), wk =   0.1875000
        k(    5) = (   0.7500000  -0.2500000   0.7500000), wk =   0.7500000
        k(    6) = (   0.5000000   0.0000000   0.5000000), wk =   0.3750000
        k(    7) = (   0.0000000  -1.0000000   0.0000000), wk =   0.0937500
        k(    8) = (  -0.5000000  -1.0000000   0.0000000), wk =   0.1875000

     Dense  grid:     7239 G-vectors     FFT dimensions: (  30,  30,  30)

     Estimated max dynamical RAM per process >      10.99 MB

     Check: negative core charge=   -0.000013

     Initial potential from superposition of free atoms

     starting charge    7.99992, renormalised to    8.00000
     Starting wfcs are    8 randomized atomic wfcs
     Checking if some PAW data can be deallocated... 

     total cpu time spent up to now is        0.5 secs

     Self-consistent Calculation

     iteration #  1     ecut=    90.00 Ry     beta= 0.20
     Davidson diagonalization with overlap
     ethr =  1.00E-04,  avg # of iterations =  3.9

     total cpu time spent up to now is        0.7 secs

     total energy              =     -36.84378016 Ry
     Harris-Foulkes estimate   =     -36.88298096 Ry
     estimated scf accuracy    <       0.18670650 Ry

     iteration #  2     ecut=    90.00 Ry     beta= 0.20
     Davidson diagonalization with overlap
     ethr =  2.33E-03,  avg # of iterations =  1.0

     total cpu time spent up to now is        0.9 secs

     total energy              =     -36.79109321 Ry
     Harris-Foulkes estimate   =     -36.84499573 Ry
     estimated scf accuracy    <       0.10501325 Ry

     iteration #  3     ecut=    90.00 Ry     beta= 0.20
     Davidson diagonalization with overlap
     ethr =  1.31E-03,  avg # of iterations =  1.9

     total cpu time spent up to now is        1.1 secs

     total energy              =     -36.80156301 Ry
     Harris-Foulkes estimate   =     -36.80157263 Ry
     estimated scf accuracy    <       0.00046538 Ry

     iteration #  4     ecut=    90.00 Ry     beta= 0.20
     Davidson diagonalization with overlap
     ethr =  5.82E-06,  avg # of iterations =  2.6

     total cpu time spent up to now is        1.4 secs

     total energy              =     -36.80195967 Ry
     Harris-Foulkes estimate   =     -36.80195471 Ry
     estimated scf accuracy    <       0.00007868 Ry

     iteration #  5     ecut=    90.00 Ry     beta= 0.20
     Davidson diagonalization with overlap
     ethr =  9.84E-07,  avg # of iterations =  1.5

     total cpu time spent up to now is        1.6 secs

     total energy              =     -36.80196694 Ry
     Harris-Foulkes estimate   =     -36.80196587 Ry
     estimated scf accuracy    <       0.00000282 Ry

     iteration #  6     ecut=    90.00 Ry     beta= 0.20
     Davidson diagonalization with overlap
     ethr =  3.53E-08,  avg # of iterations =  2.0

     total cpu time spent up to now is        1.8 secs

     total energy              =     -36.80196676 Ry
     Harris-Foulkes estimate   =     -36.80196734 Ry
     estimated scf accuracy    <       0.00000231 Ry

     iteration #  7     ecut=    90.00 Ry     beta= 0.20
     Davidson diagonalization with overlap
     ethr =  2.89E-08,  avg # of iterations =  2.0

     total cpu time spent up to now is        2.0 secs

     total energy              =     -36.80196702 Ry
     Harris-Foulkes estimate   =     -36.80196702 Ry
     estimated scf accuracy    <       0.00000006 Ry

     iteration #  8     ecut=    90.00 Ry     beta= 0.20
     Davidson diagonalization with overlap
     ethr =  7.63E-10,  avg # of iterations =  1.8

     total cpu time spent up to now is        2.3 secs

     total energy              =     -36.80196702 Ry
     Harris-Foulkes estimate   =     -36.80196702 Ry
     estimated scf accuracy    <       0.00000004 Ry

     iteration #  9     ecut=    90.00 Ry     beta= 0.20
     Davidson diagonalization with overlap
     ethr =  4.48E-10,  avg # of iterations =  1.0

     total cpu time spent up to now is        2.5 secs

     End of self-consistent calculation

          k = 0.0000 0.0000 0.0000 (   893 PWs)   bands (ev):

    -7.0580  17.3645  17.3645  17.3645

          k =-0.2500 0.2500-0.2500 (   902 PWs)   bands (ev):

    -5.0918   9.7047  15.2340  15.2340

          k = 0.5000-0.5000 0.5000 (   886 PWs)   bands (ev):

    -0.0078   1.5010  13.9909  13.9909

          k = 0.0000 0.5000 0.0000 (   902 PWs)   bands (ev):

    -4.4410  12.3093  12.3093  12.5652

          k = 0.7500-0.2500 0.7500 (   898 PWs)   bands (ev):

    -0.0522   4.9473   9.4827  11.4282

          k = 0.5000 0.0000 0.5000 (   889 PWs)   bands (ev):

    -1.8987   7.5264   8.2495  13.7069

          k = 0.0000-1.0000 0.0000 (   934 PWs)   bands (ev):

     3.0064   3.0064   9.7160   9.7160

          k =-0.5000-1.0000 0.0000 (   892 PWs)   bands (ev):

     4.1899   4.1899   7.1045   7.1045

     highest occupied level (ev):    17.3645

!    total energy              =     -36.80196702 Ry
     Harris-Foulkes estimate   =     -36.80196702 Ry
     estimated scf accuracy    <          3.1E-09 Ry

     total all-electron energy =      -152.330161 Ry

     The total energy is the sum of the following terms:

     one-electron contribution =      10.88415989 Ry
     hartree contribution      =       1.75766868 Ry
     xc contribution           =      -9.74705812 Ry
     ewald contribution        =     -27.36151388 Ry
     one-center paw contrib.   =     -12.33522360 Ry

     convergence has been achieved in   9 iterations

     Writing output data file diamond.save/

     init_run     :      0.39s CPU      0.31s WALL (       1 calls)
     electrons    :      4.59s CPU      2.02s WALL (       1 calls)

     Called by init_run:
     wfcinit      :      0.20s CPU      0.11s WALL (       1 calls)
     potinit      :      0.05s CPU      0.05s WALL (       1 calls)
     hinit0       :      0.12s CPU      0.12s WALL (       1 calls)

     Called by electrons:
     c_bands      :      2.11s CPU      0.92s WALL (       9 calls)
     sum_band     :      0.62s CPU      0.27s WALL (       9 calls)
     v_of_rho     :      0.42s CPU      0.19s WALL (      10 calls)
     newd         :      0.07s CPU      0.06s WALL (      10 calls)
     PAW_pot      :      1.39s CPU      0.62s WALL (      10 calls)
     mix_rho      :      0.03s CPU      0.02s WALL (       9 calls)

     Called by c_bands:
     init_us_2    :      0.06s CPU      0.02s WALL (     152 calls)
     cegterg      :      2.00s CPU      0.88s WALL (      72 calls)

     Called by sum_band:
     sum_band:bec :      0.00s CPU      0.00s WALL (      72 calls)
     addusdens    :      0.10s CPU      0.04s WALL (       9 calls)

     Called by *egterg:
     h_psi        :      2.04s CPU      0.93s WALL (     221 calls)
     s_psi        :      0.02s CPU      0.01s WALL (     221 calls)
     g_psi        :      0.01s CPU      0.00s WALL (     141 calls)
     cdiaghg      :      0.02s CPU      0.01s WALL (     213 calls)

     Called by h_psi:
     h_psi:pot    :      2.04s CPU      0.93s WALL (     221 calls)
     h_psi:calbec :      0.26s CPU      0.21s WALL (     221 calls)
     vloc_psi     :      1.75s CPU      0.71s WALL (     221 calls)
     add_vuspsi   :      0.02s CPU      0.01s WALL (     221 calls)

     General routines
     calbec       :      0.35s CPU      0.27s WALL (     293 calls)
     fft          :      0.30s CPU      0.13s WALL (     110 calls)
     ffts         :      0.02s CPU      0.01s WALL (       9 calls)
     fftw         :      1.91s CPU      0.77s WALL (    1920 calls)

     Parallel routines

     PWSCF        :      5.18s CPU      2.51s WALL


   This run was terminated on:  20:21:52  12May2023            

=------------------------------------------------------------------------------=
   JOB DONE.
=------------------------------------------------------------------------------=
