
     Program PHONON v.6.4.1 starts on 12May2023 at 21:43:30 

     This program is part of the open-source Quantum ESPRESSO suite
     for quantum simulation of materials; please cite
         "P. Giannozzi et al., J. Phys.:Condens. Matter 21 395502 (2009);
         "P. Giannozzi et al., J. Phys.:Condens. Matter 29 465901 (2017);
          URL http://www.quantum-espresso.org", 
     in publications or presentations arising from this work. More details at
     http://www.quantum-espresso.org/quote

     Parallel version (MPI), running on     1 processors

     MPI processes distributed on     1 nodes
      Title line not specified: using 'default'.

     Reading data from directory:
     /home/rr/repos/QE-exercises/diamond-lattice-relax/diamond.save/

     IMPORTANT: XC functional enforced from input :
     Exchange-correlation      = PBE ( 1  4  3  4 0 0)
     Any further DFT definition will be discarded
     Please, verify this is what you really want

               file C.pbe-n-kjpaw_psl.1.0.0.UPF: wavefunction(s)  2S 2P renormalized

     G-vector sticks info
     --------------------
     sticks:   dense  smooth     PW     G-vecs:    dense   smooth      PW
     Sum         571     571    169                 8873     8873    1471


     Check: negative core charge=   -0.000013


     Dynamical matrices for ( 6, 6, 6)  uniform grid of q-points
     (  16 q-points):
       N         xq(1)         xq(2)         xq(3) 
       1   0.000000000   0.000000000   0.000000000
       2  -0.166666667   0.166666667  -0.166666667
       3  -0.333333333   0.333333333  -0.333333333
       4   0.500000000  -0.500000000   0.500000000
       5   0.000000000   0.333333333   0.000000000
       6  -0.166666667   0.500000000  -0.166666667
       7   0.666666667  -0.333333333   0.666666667
       8   0.500000000  -0.166666667   0.500000000
       9   0.333333333   0.000000000   0.333333333
      10   0.000000000   0.666666667   0.000000000
      11   0.833333333  -0.166666667   0.833333333
      12   0.666666667  -0.000000000   0.666666667
      13   0.000000000  -1.000000000   0.000000000
      14   0.666666667  -0.333333333   1.000000000
      15   0.500000000  -0.166666667   0.833333333
      16  -0.333333333  -1.000000000   0.000000000

     Calculation of q =    0.0000000   0.0000000   0.0000000

     default                                                                    

     bravais-lattice index     =            2
     lattice parameter (alat)  =       6.7569  a.u.
     unit-cell volume          =      77.1219 (a.u.)^3
     number of atoms/cell      =            2
     number of atomic types    =            1
     kinetic-energy cut-off    =      90.0000  Ry
     charge density cut-off    =     360.0000  Ry
     convergence threshold     =      1.0E-14
     beta                      =       0.7000
     number of iterations used =            4
     Exchange-correlation      = PBE ( 1  4  3  4 0 0)


     celldm(1)=    6.75688  celldm(2)=    0.00000  celldm(3)=    0.00000
     celldm(4)=    0.00000  celldm(5)=    0.00000  celldm(6)=    0.00000

     crystal axes: (cart. coord. in units of alat)
               a(1) = ( -0.5000  0.0000  0.5000 )  
               a(2) = (  0.0000  0.5000  0.5000 )  
               a(3) = ( -0.5000  0.5000  0.0000 )  

     reciprocal axes: (cart. coord. in units 2 pi/alat)
               b(1) = ( -1.0000 -1.0000  1.0000 )  
               b(2) = (  1.0000  1.0000  1.0000 )  
               b(3) = ( -1.0000  1.0000 -1.0000 )  


     Atoms inside the unit cell: 

     Cartesian axes

     site n.  atom      mass           positions (alat units)
        1     C   12.0000   tau(    1) = (   -0.12500    0.12500    0.12500  )
        2     C   12.0000   tau(    2) = (   -0.87500    0.87500    0.87500  )

     Computing dynamical matrix for 
                    q = (   0.0000000   0.0000000   0.0000000 )

     49 Sym.Ops. (with q -> -q+G )


     G cutoff =  416.3271  (   8873 G-vectors)     FFT grid: ( 30, 30, 30)
     number of k points=     8

     PseudoPot. # 1 for C  read from file:
     ../pseudo/C.pbe-n-kjpaw_psl.1.0.0.UPF
     MD5 check sum: 5f16ad9a65e90284d1d834d4ab3b0f7d
     Pseudo is Projector augmented-wave + core cor, Zval =  4.0
     Generated using "atomic" code by A. Dal Corso v.6.3
     Shape of augmentation charge: PSQ
     Using radial grid of 1073 points,  4 beta functions with: 
                l(1) =   0
                l(2) =   0
                l(3) =   1
                l(4) =   1
     Q(r) pseudized with 0 coefficients 


     Mode symmetry, O_h (m-3m)  point group:


     Electric field:
     Dielectric constant
     Born effective charges in two ways 


     Atomic displacements:
     There are   2 irreducible representations

     Representation     1      3 modes -T_2g G_25' G_5+  To be done

     Representation     2      3 modes -T_1u G_15  G_4-  To be done



     Alpha used in Ewald sum =   2.8000
     PHONON       :      1.83s CPU      1.19s WALL


     Electric Fields Calculation

      iter #   1 total cpu time :     4.7 secs   av.it.:   5.3
      thresh= 1.000E-02 alpha_mix =  0.700 |ddv_scf|^2 =  1.777E-08

      iter #   2 total cpu time :     7.2 secs   av.it.:   9.3
      thresh= 1.333E-05 alpha_mix =  0.700 |ddv_scf|^2 =  6.134E-10

      iter #   3 total cpu time :     9.7 secs   av.it.:   8.9
      thresh= 2.477E-06 alpha_mix =  0.700 |ddv_scf|^2 =  4.397E-11

      iter #   4 total cpu time :    12.1 secs   av.it.:   8.9
      thresh= 6.631E-07 alpha_mix =  0.700 |ddv_scf|^2 =  2.387E-13

      iter #   5 total cpu time :    14.5 secs   av.it.:   9.0
      thresh= 4.886E-08 alpha_mix =  0.700 |ddv_scf|^2 =  4.778E-16

     End of electric fields calculation

          Dielectric constant in cartesian axis 

          (       7.394277294      -0.000000000      -0.000000000 )
          (      -0.000000000       7.394277294      -0.000000000 )
          (      -0.000000000      -0.000000000       7.394277294 )

          Effective charges (d Force / dE) in cartesian axis

           atom      1   C  
      Ex  (       -0.35987        0.00000        0.00000 )
      Ey  (        0.00000       -0.35987       -0.00000 )
      Ez  (        0.00000        0.00000       -0.35987 )
           atom      2   C  
      Ex  (       -0.35987       -0.00000        0.00000 )
      Ey  (       -0.00000       -0.35987        0.00000 )
      Ez  (        0.00000        0.00000       -0.35987 )


     Representation #  1 modes #   1  2  3

     Self-consistent Calculation

      iter #   1 total cpu time :    17.9 secs   av.it.:   5.6
      thresh= 1.000E-02 alpha_mix =  0.700 |ddv_scf|^2 =  3.092E-07

      iter #   2 total cpu time :    20.3 secs   av.it.:   9.0
      thresh= 5.560E-05 alpha_mix =  0.700 |ddv_scf|^2 =  8.137E-09

      iter #   3 total cpu time :    22.6 secs   av.it.:   8.6
      thresh= 9.021E-06 alpha_mix =  0.700 |ddv_scf|^2 =  3.870E-10

      iter #   4 total cpu time :    25.2 secs   av.it.:   8.5
      thresh= 1.967E-06 alpha_mix =  0.700 |ddv_scf|^2 =  4.396E-12

      iter #   5 total cpu time :    27.9 secs   av.it.:   7.7
      thresh= 2.097E-07 alpha_mix =  0.700 |ddv_scf|^2 =  9.001E-16

     End of self-consistent calculation

     Convergence has been achieved 


     Representation #  2 modes #   4  5  6

     Self-consistent Calculation

      iter #   1 total cpu time :    31.2 secs   av.it.:   6.0
      thresh= 1.000E-02 alpha_mix =  0.700 |ddv_scf|^2 =  1.959E-07

      iter #   2 total cpu time :    33.5 secs   av.it.:   9.3
      thresh= 4.427E-05 alpha_mix =  0.700 |ddv_scf|^2 =  7.044E-09

      iter #   3 total cpu time :    36.5 secs   av.it.:   8.8
      thresh= 8.393E-06 alpha_mix =  0.700 |ddv_scf|^2 =  4.103E-10

      iter #   4 total cpu time :    39.1 secs   av.it.:   8.8
      thresh= 2.026E-06 alpha_mix =  0.700 |ddv_scf|^2 =  6.206E-12

      iter #   5 total cpu time :    41.3 secs   av.it.:   8.2
      thresh= 2.491E-07 alpha_mix =  0.700 |ddv_scf|^2 =  1.179E-15

     End of self-consistent calculation

     Convergence has been achieved 

     Number of q in the star =    1
     List of q in the star:
          1   0.000000000   0.000000000   0.000000000

          Dielectric constant in cartesian axis 

          (       7.394277294      -0.000000000      -0.000000000 )
          (      -0.000000000       7.394277294      -0.000000000 )
          (      -0.000000000      -0.000000000       7.394277294 )

          Effective charges (d Force / dE) in cartesian axis

           atom      1   C  
      Ex  (       -0.35987        0.00000        0.00000 )
      Ey  (        0.00000       -0.35987       -0.00000 )
      Ez  (        0.00000        0.00000       -0.35987 )
           atom      2   C  
      Ex  (       -0.35987       -0.00000        0.00000 )
      Ey  (       -0.00000       -0.35987        0.00000 )
      Ez  (        0.00000        0.00000       -0.35987 )

          Effective charges (d P / du) in cartesian axis 

           atom      1   C  
      Px  (       -0.35990       -0.00000        0.00000 )
      Py  (        0.00000       -0.35990       -0.00000 )
      Pz  (        0.00000       -0.00000       -0.35990 )
           atom      2   C  
      Px  (       -0.35990       -0.00000       -0.00000 )
      Py  (       -0.00000       -0.35990       -0.00000 )
      Pz  (       -0.00000        0.00000       -0.35990 )

     Diagonalizing the dynamical matrix

     q = (    0.000000000   0.000000000   0.000000000 ) 

 **************************************************************************
     freq (    1) =       1.047495 [THz] =      34.940670 [cm-1]
     freq (    2) =       1.047495 [THz] =      34.940670 [cm-1]
     freq (    3) =       1.047495 [THz] =      34.940670 [cm-1]
     freq (    4) =      39.420643 [THz] =    1314.931102 [cm-1]
     freq (    5) =      39.420643 [THz] =    1314.931102 [cm-1]
     freq (    6) =      39.420643 [THz] =    1314.931102 [cm-1]
 **************************************************************************

     Mode symmetry, O_h (m-3m)  point group:

     freq (  1 -  3) =         34.9  [cm-1]   --> T_1u G_15  G_4- I  
     freq (  4 -  6) =       1314.9  [cm-1]   --> T_2g G_25' G_5+ R  

     Calculation of q =   -0.1666667   0.1666667  -0.1666667

     Subspace diagonalization in iterative solution of the eigenvalue problem:
     a serial algorithm will be used


     G-vector sticks info
     --------------------
     sticks:   dense  smooth     PW     G-vecs:    dense   smooth      PW
     Sum         571     571    187                 8873     8873    1639


     Title: 
     default                                                                    


     bravais-lattice index     =            2
     lattice parameter (alat)  =       6.7569  a.u.
     unit-cell volume          =      77.1219 (a.u.)^3
     number of atoms/cell      =            2
     number of atomic types    =            1
     number of electrons       =         8.00
     number of Kohn-Sham states=            4
     kinetic-energy cutoff     =      90.0000  Ry
     charge density cutoff     =     360.0000  Ry
     Exchange-correlation      = PBE ( 1  4  3  4 0 0)

     celldm(1)=   6.756876  celldm(2)=   0.000000  celldm(3)=   0.000000
     celldm(4)=   0.000000  celldm(5)=   0.000000  celldm(6)=   0.000000

     crystal axes: (cart. coord. in units of alat)
               a(1) = (  -0.500000   0.000000   0.500000 )  
               a(2) = (   0.000000   0.500000   0.500000 )  
               a(3) = (  -0.500000   0.500000   0.000000 )  

     reciprocal axes: (cart. coord. in units 2 pi/alat)
               b(1) = ( -1.000000 -1.000000  1.000000 )  
               b(2) = (  1.000000  1.000000  1.000000 )  
               b(3) = ( -1.000000  1.000000 -1.000000 )  


     PseudoPot. # 1 for C  read from file:
     ../pseudo/C.pbe-n-kjpaw_psl.1.0.0.UPF
     MD5 check sum: 5f16ad9a65e90284d1d834d4ab3b0f7d
     Pseudo is Projector augmented-wave + core cor, Zval =  4.0
     Generated using "atomic" code by A. Dal Corso v.6.3
     Shape of augmentation charge: PSQ
     Using radial grid of 1073 points,  4 beta functions with: 
                l(1) =   0
                l(2) =   0
                l(3) =   1
                l(4) =   1
     Q(r) pseudized with 0 coefficients 


     atomic species   valence    mass     pseudopotential
        C              4.00    12.00000     C ( 1.00)

     48 Sym. Ops., with inversion, found



   Cartesian axes

     site n.     atom                  positions (alat units)
         1           C   tau(   1) = (  -0.1250000   0.1250000   0.1250000  )
         2           C   tau(   2) = (  -0.8750000   0.8750000   0.8750000  )

     number of k points=    40
                       cart. coord. in units 2pi/alat
        k(    1) = (   0.0000000   0.0000000   0.0000000), wk =   0.0312500
        k(    2) = (  -0.1666667   0.1666667  -0.1666667), wk =   0.0000000
        k(    3) = (  -0.2500000   0.2500000  -0.2500000), wk =   0.0312500
        k(    4) = (  -0.4166667   0.4166667  -0.4166667), wk =   0.0000000
        k(    5) = (   0.5000000  -0.5000000   0.5000000), wk =   0.0312500
        k(    6) = (   0.3333333  -0.3333333   0.3333333), wk =   0.0000000
        k(    7) = (   0.0000000   0.5000000   0.0000000), wk =   0.0937500
        k(    8) = (  -0.1666667   0.6666667  -0.1666667), wk =   0.0000000
        k(    9) = (   0.7500000  -0.2500000   0.7500000), wk =   0.0937500
        k(   10) = (   0.5833333  -0.0833333   0.5833333), wk =   0.0000000
        k(   11) = (   0.5000000   0.0000000   0.5000000), wk =   0.0937500
        k(   12) = (   0.3333333   0.1666667   0.3333333), wk =   0.0000000
        k(   13) = (   0.0000000  -1.0000000   0.0000000), wk =   0.0937500
        k(   14) = (  -0.1666667  -0.8333333  -0.1666667), wk =   0.0000000
        k(   15) = (  -0.5000000  -1.0000000   0.0000000), wk =   0.1875000
        k(   16) = (  -0.6666667  -0.8333333  -0.1666667), wk =   0.0000000
        k(   17) = (   0.2500000   0.2500000   0.2500000), wk =   0.0937500
        k(   18) = (   0.0833333   0.4166667   0.0833333), wk =   0.0000000
        k(   19) = (  -0.2500000  -0.2500000  -0.2500000), wk =   0.0937500
        k(   20) = (  -0.4166667  -0.0833333  -0.4166667), wk =   0.0000000
        k(   21) = (   0.2500000  -0.2500000   0.2500000), wk =   0.0312500
        k(   22) = (   0.0833333  -0.0833333   0.0833333), wk =   0.0000000
        k(   23) = (  -0.5000000  -0.5000000  -0.5000000), wk =   0.0937500
        k(   24) = (  -0.6666667  -0.3333333  -0.6666667), wk =   0.0000000
        k(   25) = (   0.0000000  -0.5000000   0.0000000), wk =   0.0937500
        k(   26) = (  -0.1666667  -0.3333333  -0.1666667), wk =   0.0000000
        k(   27) = (  -0.7500000  -0.2500000  -0.7500000), wk =   0.0937500
        k(   28) = (  -0.9166667  -0.0833333  -0.9166667), wk =   0.0000000
        k(   29) = (   0.7500000   0.2500000   0.7500000), wk =   0.0937500
        k(   30) = (   0.5833333   0.4166667   0.5833333), wk =   0.0000000
        k(   31) = (  -0.7500000   0.2500000  -0.7500000), wk =   0.0937500
        k(   32) = (  -0.9166667   0.4166667  -0.9166667), wk =   0.0000000
        k(   33) = (  -0.7500000   0.2500000   0.7500000), wk =   0.1875000
        k(   34) = (  -0.9166667   0.4166667   0.5833333), wk =   0.0000000
        k(   35) = (  -0.7500000  -0.2500000   0.7500000), wk =   0.1875000
        k(   36) = (  -0.9166667  -0.0833333   0.5833333), wk =   0.0000000
        k(   37) = (  -0.5000000   0.0000000  -0.5000000), wk =   0.0937500
        k(   38) = (  -0.6666667   0.1666667  -0.6666667), wk =   0.0000000
        k(   39) = (  -0.5000000   0.0000000   0.5000000), wk =   0.1875000
        k(   40) = (  -0.6666667   0.1666667   0.3333333), wk =   0.0000000

     Dense  grid:     8873 G-vectors     FFT dimensions: (  30,  30,  30)

     Estimated max dynamical RAM per process >       9.94 MB

     Check: negative core charge=   -0.000013

     The potential is recalculated from file :
     /home/rr/repos/QE-exercises/diamond-lattice-relax/_ph0/diamond.save/charge-density

     Starting wfcs are    8 atomic wfcs
     Checking if some PAW data can be deallocated... 

     Band Structure Calculation
     Davidson diagonalization with overlap

     ethr =  1.25E-10,  avg # of iterations =  9.9

     total cpu time spent up to now is        3.4 secs

     End of band structure calculation

          k = 0.0000 0.0000 0.0000 (  1139 PWs)   bands (ev):

    -8.1424  13.2499  13.2499  13.2499

          k =-0.1667 0.1667-0.1667 (  1104 PWs)   bands (ev):

    -7.3795   9.5086  12.2326  12.2326

          k =-0.2500 0.2500-0.2500 (  1101 PWs)   bands (ev):

    -6.4362   6.6845  11.5134  11.5134

          k =-0.4167 0.4167-0.4167 (  1113 PWs)   bands (ev):

    -3.5748   1.4246  10.5844  10.5844

          k = 0.5000-0.5000 0.5000 (  1104 PWs)   bands (ev):

    -2.4059  -0.0589  10.4633  10.4633

          k = 0.3333-0.3333 0.3333 (  1107 PWs)   bands (ev):

    -5.1425   3.9176  10.9421  10.9421

          k = 0.0000 0.5000 0.0000 (  1094 PWs)   bands (ev):

    -5.8696   8.7389   9.1509   9.1509

          k =-0.1667 0.6667-0.1667 (  1101 PWs)   bands (ev):

    -3.6744   4.6477   7.5265   8.3351

          k = 0.7500-0.2500 0.7500 (  1108 PWs)   bands (ev):

    -2.1536   2.5044   6.5387   8.3990

          k = 0.5833-0.0833 0.5833 (  1118 PWs)   bands (ev):

    -2.1935   2.6407   5.3899   9.4224

          k = 0.5000 0.0000 0.5000 (  1117 PWs)   bands (ev):

    -3.6987   4.5768   5.6813  10.2536

          k = 0.3333 0.1667 0.3333 (  1107 PWs)   bands (ev):

    -5.8761   5.8448   9.9899  11.6213

          k = 0.0000-1.0000 0.0000 (  1106 PWs)   bands (ev):

     0.5261   0.5261   6.9843   6.9843

          k =-0.1667-0.8333-0.1667 (  1108 PWs)   bands (ev):

    -1.5739   3.0575   5.6397   7.6417

          k =-0.5000-1.0000 0.0000 (  1124 PWs)   bands (ev):

     1.3070   1.3070   4.9763   4.9763

          k =-0.6667-0.8333-0.1667 (  1110 PWs)   bands (ev):

    -1.0462   2.2159   5.3354   7.6094

          k = 0.2500 0.2500 0.2500 (  1101 PWs)   bands (ev):

    -6.4362   6.6845  11.5134  11.5134

          k = 0.0833 0.4167 0.0833 (  1110 PWs)   bands (ev):

    -6.4335   8.6058   9.9457  10.5886

          k =-0.2500-0.2500-0.2500 (  1101 PWs)   bands (ev):

    -6.4362   6.6845  11.5134  11.5134

          k =-0.4167-0.0833-0.4167 (  1108 PWs)   bands (ev):

    -4.9546   5.2452   7.7342  11.0920

          k = 0.2500-0.2500 0.2500 (  1101 PWs)   bands (ev):

    -6.4362   6.6845  11.5134  11.5134

          k = 0.0833-0.0833 0.0833 (  1109 PWs)   bands (ev):

    -7.9511  12.0291  12.9294  12.9294

          k =-0.5000-0.5000-0.5000 (  1104 PWs)   bands (ev):

    -2.4059  -0.0589  10.4633  10.4633

          k =-0.6667-0.3333-0.6667 (  1115 PWs)   bands (ev):

    -2.4229   1.2889   8.2817   9.3045

          k = 0.0000-0.5000 0.0000 (  1094 PWs)   bands (ev):

    -5.8696   8.7389   9.1509   9.1509

          k =-0.1667-0.3333-0.1667 (  1112 PWs)   bands (ev):

    -6.6232   7.6862  10.8303  11.6477

          k =-0.7500-0.2500-0.7500 (  1108 PWs)   bands (ev):

    -2.1536   2.5044   6.5387   8.3990

          k =-0.9167-0.0833-0.9167 (  1123 PWs)   bands (ev):

    -0.6727   1.9311   6.4363   7.1525

          k = 0.7500 0.2500 0.7500 (  1108 PWs)   bands (ev):

    -2.1536   2.5044   6.5387   8.3990

          k = 0.5833 0.4167 0.5833 (  1119 PWs)   bands (ev):

    -2.4481   0.3237   9.8171  10.1172

          k =-0.7500 0.2500-0.7500 (  1108 PWs)   bands (ev):

    -2.1536   2.5044   6.5387   8.3990

          k =-0.9167 0.4167-0.9167 (  1107 PWs)   bands (ev):

    -4.9416   6.8384   8.5306   8.5925

          k =-0.7500 0.2500 0.7500 (  1108 PWs)   bands (ev):

    -2.1536   2.5044   6.5387   8.3990

          k =-0.9167 0.4167 0.5833 (  1113 PWs)   bands (ev):

    -3.5219   3.8787   6.4892   9.7212

          k =-0.7500-0.2500 0.7500 (  1108 PWs)   bands (ev):

    -2.1536   2.5044   6.5387   8.3990

          k =-0.9167-0.0833 0.5833 (  1113 PWs)   bands (ev):

     0.1924   1.9748   4.6300   6.2075

          k =-0.5000 0.0000-0.5000 (  1117 PWs)   bands (ev):

    -3.6987   4.5768   5.6813  10.2536

          k =-0.6667 0.1667-0.6667 (  1115 PWs)   bands (ev):

    -1.0711   1.2328   5.7919   8.7748

          k =-0.5000 0.0000 0.5000 (  1117 PWs)   bands (ev):

    -3.6987   4.5768   5.6813  10.2536

          k =-0.6667 0.1667 0.3333 (  1116 PWs)   bands (ev):

    -2.9985   3.0587   7.2947   8.6947

     highest occupied level (ev):    13.2499

     Writing output data file diamond.save/

     default                                                                    

     bravais-lattice index     =            2
     lattice parameter (alat)  =       6.7569  a.u.
     unit-cell volume          =      77.1219 (a.u.)^3
     number of atoms/cell      =            2
     number of atomic types    =            1
     kinetic-energy cut-off    =      90.0000  Ry
     charge density cut-off    =     360.0000  Ry
     convergence threshold     =      1.0E-14
     beta                      =       0.7000
     number of iterations used =            4
     Exchange-correlation      = PBE ( 1  4  3  4 0 0)


     celldm(1)=    6.75688  celldm(2)=    0.00000  celldm(3)=    0.00000
     celldm(4)=    0.00000  celldm(5)=    0.00000  celldm(6)=    0.00000

     crystal axes: (cart. coord. in units of alat)
               a(1) = ( -0.5000  0.0000  0.5000 )  
               a(2) = (  0.0000  0.5000  0.5000 )  
               a(3) = ( -0.5000  0.5000  0.0000 )  

     reciprocal axes: (cart. coord. in units 2 pi/alat)
               b(1) = ( -1.0000 -1.0000  1.0000 )  
               b(2) = (  1.0000  1.0000  1.0000 )  
               b(3) = ( -1.0000  1.0000 -1.0000 )  


     Atoms inside the unit cell: 

     Cartesian axes

     site n.  atom      mass           positions (alat units)
        1     C   12.0000   tau(    1) = (   -0.12500    0.12500    0.12500  )
        2     C   12.0000   tau(    2) = (   -0.87500    0.87500    0.87500  )

     Computing dynamical matrix for 
                    q = (  -0.1666667   0.1666667  -0.1666667 )

      6 Sym.Ops. (no q -> -q+G )


     G cutoff =  416.3271  (   8873 G-vectors)     FFT grid: ( 30, 30, 30)
     number of k points=    40

     PseudoPot. # 1 for C  read from file:
     ../pseudo/C.pbe-n-kjpaw_psl.1.0.0.UPF
     MD5 check sum: 5f16ad9a65e90284d1d834d4ab3b0f7d
     Pseudo is Projector augmented-wave + core cor, Zval =  4.0
     Generated using "atomic" code by A. Dal Corso v.6.3
     Shape of augmentation charge: PSQ
     Using radial grid of 1073 points,  4 beta functions with: 
                l(1) =   0
                l(2) =   0
                l(3) =   1
                l(4) =   1
     Q(r) pseudized with 0 coefficients 


     Mode symmetry, C_3v (3m)   point group:


     Atomic displacements:
     There are   4 irreducible representations

     Representation     1      1 modes -A_1  L_1  To be done

     Representation     2      1 modes -A_1  L_1  To be done

     Representation     3      2 modes -E    L_3  To be done

     Representation     4      2 modes -E    L_3  To be done



     Alpha used in Ewald sum =   2.8000
     PHONON       :   1m19.68s CPU     46.20s WALL



     Representation #  1 mode #   1

     Self-consistent Calculation

      iter #   1 total cpu time :    47.7 secs   av.it.:   6.8
      thresh= 1.000E-02 alpha_mix =  0.700 |ddv_scf|^2 =  4.541E-03

      iter #   2 total cpu time :    49.5 secs   av.it.:   7.6
      thresh= 6.739E-03 alpha_mix =  0.700 |ddv_scf|^2 =  2.496E-02

      iter #   3 total cpu time :    51.1 secs   av.it.:   6.6
      thresh= 1.000E-02 alpha_mix =  0.700 |ddv_scf|^2 =  3.817E-07

      iter #   4 total cpu time :    53.7 secs   av.it.:   8.3
      thresh= 6.179E-05 alpha_mix =  0.700 |ddv_scf|^2 =  4.795E-08

      iter #   5 total cpu time :    55.1 secs   av.it.:   8.4
      thresh= 2.190E-05 alpha_mix =  0.700 |ddv_scf|^2 =  2.115E-09

      iter #   6 total cpu time :    57.0 secs   av.it.:   8.3
      thresh= 4.599E-06 alpha_mix =  0.700 |ddv_scf|^2 =  1.191E-09

      iter #   7 total cpu time :    58.9 secs   av.it.:   6.8
      thresh= 3.451E-06 alpha_mix =  0.700 |ddv_scf|^2 =  7.103E-11

      iter #   8 total cpu time :    61.0 secs   av.it.:   7.2
      thresh= 8.428E-07 alpha_mix =  0.700 |ddv_scf|^2 =  4.567E-12

      iter #   9 total cpu time :    62.5 secs   av.it.:   7.3
      thresh= 2.137E-07 alpha_mix =  0.700 |ddv_scf|^2 =  2.831E-12

      iter #  10 total cpu time :    64.3 secs   av.it.:   7.1
      thresh= 1.683E-07 alpha_mix =  0.700 |ddv_scf|^2 =  4.590E-14

      iter #  11 total cpu time :    66.6 secs   av.it.:   8.4
      thresh= 2.142E-08 alpha_mix =  0.700 |ddv_scf|^2 =  1.065E-14

      iter #  12 total cpu time :    68.9 secs   av.it.:   8.0
      thresh= 1.032E-08 alpha_mix =  0.700 |ddv_scf|^2 =  5.027E-16

     End of self-consistent calculation

     Convergence has been achieved 


     Representation #  2 mode #   2

     Self-consistent Calculation

      iter #   1 total cpu time :    70.7 secs   av.it.:   6.8
      thresh= 1.000E-02 alpha_mix =  0.700 |ddv_scf|^2 =  4.541E-03

      iter #   2 total cpu time :    72.5 secs   av.it.:   7.6
      thresh= 6.739E-03 alpha_mix =  0.700 |ddv_scf|^2 =  2.496E-02

      iter #   3 total cpu time :    73.9 secs   av.it.:   6.6
      thresh= 1.000E-02 alpha_mix =  0.700 |ddv_scf|^2 =  3.821E-07

      iter #   4 total cpu time :    75.8 secs   av.it.:   8.3
      thresh= 6.182E-05 alpha_mix =  0.700 |ddv_scf|^2 =  4.925E-08

      iter #   5 total cpu time :    78.0 secs   av.it.:   8.4
      thresh= 2.219E-05 alpha_mix =  0.700 |ddv_scf|^2 =  2.118E-09

      iter #   6 total cpu time :    80.0 secs   av.it.:   8.4
      thresh= 4.602E-06 alpha_mix =  0.700 |ddv_scf|^2 =  3.112E-11

      iter #   7 total cpu time :    81.7 secs   av.it.:   7.7
      thresh= 5.579E-07 alpha_mix =  0.700 |ddv_scf|^2 =  1.454E-11

      iter #   8 total cpu time :    83.7 secs   av.it.:   7.2
      thresh= 3.813E-07 alpha_mix =  0.700 |ddv_scf|^2 =  1.324E-11

      iter #   9 total cpu time :    85.0 secs   av.it.:   7.0
      thresh= 3.639E-07 alpha_mix =  0.700 |ddv_scf|^2 =  3.306E-12

      iter #  10 total cpu time :    86.4 secs   av.it.:   6.9
      thresh= 1.818E-07 alpha_mix =  0.700 |ddv_scf|^2 =  2.638E-14

      iter #  11 total cpu time :    88.0 secs   av.it.:   8.5
      thresh= 1.624E-08 alpha_mix =  0.700 |ddv_scf|^2 =  6.881E-15

     End of self-consistent calculation

     Convergence has been achieved 


     Representation #  3 modes #   3  4

     Self-consistent Calculation

      iter #   1 total cpu time :    91.0 secs   av.it.:   6.1
      thresh= 1.000E-02 alpha_mix =  0.700 |ddv_scf|^2 =  6.256E-07

      iter #   2 total cpu time :    94.3 secs   av.it.:   9.6
      thresh= 7.910E-05 alpha_mix =  0.700 |ddv_scf|^2 =  1.663E-08

      iter #   3 total cpu time :    98.2 secs   av.it.:   9.1
      thresh= 1.290E-05 alpha_mix =  0.700 |ddv_scf|^2 =  1.019E-09

      iter #   4 total cpu time :   101.3 secs   av.it.:   9.0
      thresh= 3.192E-06 alpha_mix =  0.700 |ddv_scf|^2 =  1.408E-11

      iter #   5 total cpu time :   104.8 secs   av.it.:   8.4
      thresh= 3.753E-07 alpha_mix =  0.700 |ddv_scf|^2 =  9.542E-14

      iter #   6 total cpu time :   109.0 secs   av.it.:   9.0
      thresh= 3.089E-08 alpha_mix =  0.700 |ddv_scf|^2 =  1.505E-16

     End of self-consistent calculation

     Convergence has been achieved 


     Representation #  4 modes #   5  6

     Self-consistent Calculation

      iter #   1 total cpu time :   112.5 secs   av.it.:   6.0
      thresh= 1.000E-02 alpha_mix =  0.700 |ddv_scf|^2 =  6.257E-07

      iter #   2 total cpu time :   116.7 secs   av.it.:   9.3
      thresh= 7.910E-05 alpha_mix =  0.700 |ddv_scf|^2 =  1.663E-08

      iter #   3 total cpu time :   120.1 secs   av.it.:   8.9
      thresh= 1.290E-05 alpha_mix =  0.700 |ddv_scf|^2 =  1.019E-09

      iter #   4 total cpu time :   123.0 secs   av.it.:   8.7
      thresh= 3.192E-06 alpha_mix =  0.700 |ddv_scf|^2 =  1.410E-11

      iter #   5 total cpu time :   126.2 secs   av.it.:   8.2
      thresh= 3.755E-07 alpha_mix =  0.700 |ddv_scf|^2 =  9.534E-14

      iter #   6 total cpu time :   130.0 secs   av.it.:   8.8
      thresh= 3.088E-08 alpha_mix =  0.700 |ddv_scf|^2 =  1.508E-16

     End of self-consistent calculation

     Convergence has been achieved 

     Number of q in the star =    8
     List of q in the star:
          1  -0.166666667   0.166666667  -0.166666667
          2   0.166666667   0.166666667   0.166666667
          3  -0.166666667  -0.166666667  -0.166666667
          4   0.166666667  -0.166666667   0.166666667
          5   0.166666667  -0.166666667  -0.166666667
          6   0.166666667   0.166666667  -0.166666667
          7  -0.166666667  -0.166666667   0.166666667
          8  -0.166666667   0.166666667   0.166666667

     Diagonalizing the dynamical matrix

     q = (   -0.166666667   0.166666667  -0.166666667 ) 

 **************************************************************************
     freq (    1) =       9.184445 [THz] =     306.360116 [cm-1]
     freq (    2) =       9.184445 [THz] =     306.360116 [cm-1]
     freq (    3) =      15.181081 [THz] =     506.386338 [cm-1]
     freq (    4) =      38.227715 [THz] =    1275.139322 [cm-1]
     freq (    5) =      38.227715 [THz] =    1275.139322 [cm-1]
     freq (    6) =      38.815758 [THz] =    1294.754314 [cm-1]
 **************************************************************************

     Mode symmetry, C_3v (3m)   point group:

     freq (  1 -  2) =        306.4  [cm-1]   --> E    L_3           
     freq (  3 -  3) =        506.4  [cm-1]   --> A_1  L_1           
     freq (  4 -  5) =       1275.1  [cm-1]   --> E    L_3           
     freq (  6 -  6) =       1294.8  [cm-1]   --> A_1  L_1           

     Calculation of q =   -0.3333333   0.3333333  -0.3333333

     G-vector sticks info
     --------------------
     sticks:   dense  smooth     PW     G-vecs:    dense   smooth      PW
     Sum         571     571    199                 8873     8873    1807


     Title: 
     default                                                                    


     bravais-lattice index     =            2
     lattice parameter (alat)  =       6.7569  a.u.
     unit-cell volume          =      77.1219 (a.u.)^3
     number of atoms/cell      =            2
     number of atomic types    =            1
     number of electrons       =         8.00
     number of Kohn-Sham states=            4
     kinetic-energy cutoff     =      90.0000  Ry
     charge density cutoff     =     360.0000  Ry
     Exchange-correlation      = PBE ( 1  4  3  4 0 0)

     celldm(1)=   6.756876  celldm(2)=   0.000000  celldm(3)=   0.000000
     celldm(4)=   0.000000  celldm(5)=   0.000000  celldm(6)=   0.000000

     crystal axes: (cart. coord. in units of alat)
               a(1) = (  -0.500000   0.000000   0.500000 )  
               a(2) = (   0.000000   0.500000   0.500000 )  
               a(3) = (  -0.500000   0.500000   0.000000 )  

     reciprocal axes: (cart. coord. in units 2 pi/alat)
               b(1) = ( -1.000000 -1.000000  1.000000 )  
               b(2) = (  1.000000  1.000000  1.000000 )  
               b(3) = ( -1.000000  1.000000 -1.000000 )  


     PseudoPot. # 1 for C  read from file:
     ../pseudo/C.pbe-n-kjpaw_psl.1.0.0.UPF
     MD5 check sum: 5f16ad9a65e90284d1d834d4ab3b0f7d
     Pseudo is Projector augmented-wave + core cor, Zval =  4.0
     Generated using "atomic" code by A. Dal Corso v.6.3
     Shape of augmentation charge: PSQ
     Using radial grid of 1073 points,  4 beta functions with: 
                l(1) =   0
                l(2) =   0
                l(3) =   1
                l(4) =   1
     Q(r) pseudized with 0 coefficients 


     atomic species   valence    mass     pseudopotential
        C              4.00    12.00000     C ( 1.00)

     48 Sym. Ops., with inversion, found



   Cartesian axes

     site n.     atom                  positions (alat units)
         1           C   tau(   1) = (  -0.1250000   0.1250000   0.1250000  )
         2           C   tau(   2) = (  -0.8750000   0.8750000   0.8750000  )

     number of k points=    40
                       cart. coord. in units 2pi/alat
        k(    1) = (   0.0000000   0.0000000   0.0000000), wk =   0.0312500
        k(    2) = (  -0.3333333   0.3333333  -0.3333333), wk =   0.0000000
        k(    3) = (  -0.2500000   0.2500000  -0.2500000), wk =   0.0312500
        k(    4) = (  -0.5833333   0.5833333  -0.5833333), wk =   0.0000000
        k(    5) = (   0.5000000  -0.5000000   0.5000000), wk =   0.0312500
        k(    6) = (   0.1666667  -0.1666667   0.1666667), wk =   0.0000000
        k(    7) = (   0.0000000   0.5000000   0.0000000), wk =   0.0937500
        k(    8) = (  -0.3333333   0.8333333  -0.3333333), wk =   0.0000000
        k(    9) = (   0.7500000  -0.2500000   0.7500000), wk =   0.0937500
        k(   10) = (   0.4166667   0.0833333   0.4166667), wk =   0.0000000
        k(   11) = (   0.5000000   0.0000000   0.5000000), wk =   0.0937500
        k(   12) = (   0.1666667   0.3333333   0.1666667), wk =   0.0000000
        k(   13) = (   0.0000000  -1.0000000   0.0000000), wk =   0.0937500
        k(   14) = (  -0.3333333  -0.6666667  -0.3333333), wk =   0.0000000
        k(   15) = (  -0.5000000  -1.0000000   0.0000000), wk =   0.1875000
        k(   16) = (  -0.8333333  -0.6666667  -0.3333333), wk =   0.0000000
        k(   17) = (   0.2500000   0.2500000   0.2500000), wk =   0.0937500
        k(   18) = (  -0.0833333   0.5833333  -0.0833333), wk =   0.0000000
        k(   19) = (  -0.2500000  -0.2500000  -0.2500000), wk =   0.0937500
        k(   20) = (  -0.5833333   0.0833333  -0.5833333), wk =   0.0000000
        k(   21) = (   0.2500000  -0.2500000   0.2500000), wk =   0.0312500
        k(   22) = (  -0.0833333   0.0833333  -0.0833333), wk =   0.0000000
        k(   23) = (  -0.5000000  -0.5000000  -0.5000000), wk =   0.0937500
        k(   24) = (  -0.8333333  -0.1666667  -0.8333333), wk =   0.0000000
        k(   25) = (   0.0000000  -0.5000000   0.0000000), wk =   0.0937500
        k(   26) = (  -0.3333333  -0.1666667  -0.3333333), wk =   0.0000000
        k(   27) = (  -0.7500000  -0.2500000  -0.7500000), wk =   0.0937500
        k(   28) = (  -1.0833333   0.0833333  -1.0833333), wk =   0.0000000
        k(   29) = (   0.7500000   0.2500000   0.7500000), wk =   0.0937500
        k(   30) = (   0.4166667   0.5833333   0.4166667), wk =   0.0000000
        k(   31) = (  -0.7500000   0.2500000  -0.7500000), wk =   0.0937500
        k(   32) = (  -1.0833333   0.5833333  -1.0833333), wk =   0.0000000
        k(   33) = (  -0.7500000   0.2500000   0.7500000), wk =   0.1875000
        k(   34) = (  -1.0833333   0.5833333   0.4166667), wk =   0.0000000
        k(   35) = (  -0.7500000  -0.2500000   0.7500000), wk =   0.1875000
        k(   36) = (  -1.0833333   0.0833333   0.4166667), wk =   0.0000000
        k(   37) = (  -0.5000000   0.0000000  -0.5000000), wk =   0.0937500
        k(   38) = (  -0.8333333   0.3333333  -0.8333333), wk =   0.0000000
        k(   39) = (  -0.5000000   0.0000000   0.5000000), wk =   0.1875000
        k(   40) = (  -0.8333333   0.3333333   0.1666667), wk =   0.0000000

     Dense  grid:     8873 G-vectors     FFT dimensions: (  30,  30,  30)

     Estimated max dynamical RAM per process >       9.95 MB

     Check: negative core charge=   -0.000013

     The potential is recalculated from file :
     /home/rr/repos/QE-exercises/diamond-lattice-relax/_ph0/diamond.save/charge-density

     Starting wfcs are    8 atomic wfcs
     Checking if some PAW data can be deallocated... 

     Band Structure Calculation
     Davidson diagonalization with overlap

     ethr =  1.25E-10,  avg # of iterations =  9.9

     total cpu time spent up to now is        6.7 secs

     End of band structure calculation

          k = 0.0000 0.0000 0.0000 (  1139 PWs)   bands (ev):

    -8.1424  13.2499  13.2499  13.2499

          k =-0.3333 0.3333-0.3333 (  1107 PWs)   bands (ev):

    -5.1425   3.9176  10.9421  10.9421

          k =-0.2500 0.2500-0.2500 (  1101 PWs)   bands (ev):

    -6.4362   6.6845  11.5134  11.5134

          k =-0.5833 0.5833-0.5833 (  1113 PWs)   bands (ev):

    -3.5748   1.4246  10.5844  10.5844

          k = 0.5000-0.5000 0.5000 (  1104 PWs)   bands (ev):

    -2.4059  -0.0589  10.4633  10.4633

          k = 0.1667-0.1667 0.1667 (  1104 PWs)   bands (ev):

    -7.3795   9.5086  12.2326  12.2326

          k = 0.0000 0.5000 0.0000 (  1094 PWs)   bands (ev):

    -5.8696   8.7389   9.1509   9.1509

          k =-0.3333 0.8333-0.3333 (  1115 PWs)   bands (ev):

    -1.0711   1.2328   5.7919   8.7748

          k = 0.7500-0.2500 0.7500 (  1108 PWs)   bands (ev):

    -2.1536   2.5044   6.5387   8.3990

          k = 0.4167 0.0833 0.4167 (  1108 PWs)   bands (ev):

    -4.9546   5.2452   7.7342  11.0920

          k = 0.5000 0.0000 0.5000 (  1117 PWs)   bands (ev):

    -3.6987   4.5768   5.6813  10.2536

          k = 0.1667 0.3333 0.1667 (  1112 PWs)   bands (ev):

    -6.6232   7.6862  10.8303  11.6477

          k = 0.0000-1.0000 0.0000 (  1106 PWs)   bands (ev):

     0.5261   0.5261   6.9843   6.9843

          k =-0.3333-0.6667-0.3333 (  1115 PWs)   bands (ev):

    -2.4229   1.2889   8.2817   9.3045

          k =-0.5000-1.0000 0.0000 (  1124 PWs)   bands (ev):

     1.3070   1.3070   4.9763   4.9763

          k =-0.8333-0.6667-0.3333 (  1116 PWs)   bands (ev):

    -2.9985   3.0587   7.2947   8.6947

          k = 0.2500 0.2500 0.2500 (  1101 PWs)   bands (ev):

    -6.4362   6.6845  11.5134  11.5134

          k =-0.0833 0.5833-0.0833 (  1107 PWs)   bands (ev):

    -4.9416   6.8384   8.5306   8.5925

          k =-0.2500-0.2500-0.2500 (  1101 PWs)   bands (ev):

    -6.4362   6.6845  11.5134  11.5134

          k =-0.5833 0.0833-0.5833 (  1118 PWs)   bands (ev):

    -2.1935   2.6407   5.3899   9.4224

          k = 0.2500-0.2500 0.2500 (  1101 PWs)   bands (ev):

    -6.4362   6.6845  11.5134  11.5134

          k =-0.0833 0.0833-0.0833 (  1109 PWs)   bands (ev):

    -7.9511  12.0291  12.9294  12.9294

          k =-0.5000-0.5000-0.5000 (  1104 PWs)   bands (ev):

    -2.4059  -0.0589  10.4633  10.4633

          k =-0.8333-0.1667-0.8333 (  1108 PWs)   bands (ev):

    -1.5739   3.0575   5.6397   7.6417

          k = 0.0000-0.5000 0.0000 (  1094 PWs)   bands (ev):

    -5.8696   8.7389   9.1509   9.1509

          k =-0.3333-0.1667-0.3333 (  1107 PWs)   bands (ev):

    -5.8761   5.8448   9.9899  11.6213

          k =-0.7500-0.2500-0.7500 (  1108 PWs)   bands (ev):

    -2.1536   2.5044   6.5387   8.3990

          k =-1.0833 0.0833-1.0833 (  1123 PWs)   bands (ev):

    -0.6727   1.9311   6.4363   7.1525

          k = 0.7500 0.2500 0.7500 (  1108 PWs)   bands (ev):

    -2.1536   2.5044   6.5387   8.3990

          k = 0.4167 0.5833 0.4167 (  1119 PWs)   bands (ev):

    -2.4481   0.3237   9.8171  10.1172

          k =-0.7500 0.2500-0.7500 (  1108 PWs)   bands (ev):

    -2.1536   2.5044   6.5387   8.3990

          k =-1.0833 0.5833-1.0833 (  1110 PWs)   bands (ev):

    -6.4335   8.6058   9.9457  10.5886

          k =-0.7500 0.2500 0.7500 (  1108 PWs)   bands (ev):

    -2.1536   2.5044   6.5387   8.3990

          k =-1.0833 0.5833 0.4167 (  1113 PWs)   bands (ev):

    -3.5219   3.8787   6.4892   9.7212

          k =-0.7500-0.2500 0.7500 (  1108 PWs)   bands (ev):

    -2.1536   2.5044   6.5387   8.3990

          k =-1.0833 0.0833 0.4167 (  1113 PWs)   bands (ev):

     0.1924   1.9748   4.6300   6.2075

          k =-0.5000 0.0000-0.5000 (  1117 PWs)   bands (ev):

    -3.6987   4.5768   5.6813  10.2536

          k =-0.8333 0.3333-0.8333 (  1101 PWs)   bands (ev):

    -3.6744   4.6477   7.5265   8.3351

          k =-0.5000 0.0000 0.5000 (  1117 PWs)   bands (ev):

    -3.6987   4.5768   5.6813  10.2536

          k =-0.8333 0.3333 0.1667 (  1110 PWs)   bands (ev):

    -1.0462   2.2159   5.3354   7.6094

     highest occupied level (ev):    13.2499

     Writing output data file diamond.save/

     default                                                                    

     bravais-lattice index     =            2
     lattice parameter (alat)  =       6.7569  a.u.
     unit-cell volume          =      77.1219 (a.u.)^3
     number of atoms/cell      =            2
     number of atomic types    =            1
     kinetic-energy cut-off    =      90.0000  Ry
     charge density cut-off    =     360.0000  Ry
     convergence threshold     =      1.0E-14
     beta                      =       0.7000
     number of iterations used =            4
     Exchange-correlation      = PBE ( 1  4  3  4 0 0)


     celldm(1)=    6.75688  celldm(2)=    0.00000  celldm(3)=    0.00000
     celldm(4)=    0.00000  celldm(5)=    0.00000  celldm(6)=    0.00000

     crystal axes: (cart. coord. in units of alat)
               a(1) = ( -0.5000  0.0000  0.5000 )  
               a(2) = (  0.0000  0.5000  0.5000 )  
               a(3) = ( -0.5000  0.5000  0.0000 )  

     reciprocal axes: (cart. coord. in units 2 pi/alat)
               b(1) = ( -1.0000 -1.0000  1.0000 )  
               b(2) = (  1.0000  1.0000  1.0000 )  
               b(3) = ( -1.0000  1.0000 -1.0000 )  


     Atoms inside the unit cell: 

     Cartesian axes

     site n.  atom      mass           positions (alat units)
        1     C   12.0000   tau(    1) = (   -0.12500    0.12500    0.12500  )
        2     C   12.0000   tau(    2) = (   -0.87500    0.87500    0.87500  )

     Computing dynamical matrix for 
                    q = (  -0.3333333   0.3333333  -0.3333333 )

      6 Sym.Ops. (no q -> -q+G )


     G cutoff =  416.3271  (   8873 G-vectors)     FFT grid: ( 30, 30, 30)
     number of k points=    40

     PseudoPot. # 1 for C  read from file:
     ../pseudo/C.pbe-n-kjpaw_psl.1.0.0.UPF
     MD5 check sum: 5f16ad9a65e90284d1d834d4ab3b0f7d
     Pseudo is Projector augmented-wave + core cor, Zval =  4.0
     Generated using "atomic" code by A. Dal Corso v.6.3
     Shape of augmentation charge: PSQ
     Using radial grid of 1073 points,  4 beta functions with: 
                l(1) =   0
                l(2) =   0
                l(3) =   1
                l(4) =   1
     Q(r) pseudized with 0 coefficients 


     Mode symmetry, C_3v (3m)   point group:


     Atomic displacements:
     There are   4 irreducible representations

     Representation     1      1 modes -A_1  L_1  To be done

     Representation     2      1 modes -A_1  L_1  To be done

     Representation     3      2 modes -E    L_3  To be done

     Representation     4      2 modes -E    L_3  To be done



     Alpha used in Ewald sum =   2.8000
     PHONON       :   4m 1.28s CPU   2m14.34s WALL



     Representation #  1 mode #   1

     Self-consistent Calculation

      iter #   1 total cpu time :   135.8 secs   av.it.:   6.6
      thresh= 1.000E-02 alpha_mix =  0.700 |ddv_scf|^2 =  5.138E-04

      iter #   2 total cpu time :   137.5 secs   av.it.:   8.2
      thresh= 2.267E-03 alpha_mix =  0.700 |ddv_scf|^2 =  1.247E-03

      iter #   3 total cpu time :   139.1 secs   av.it.:   7.2
      thresh= 3.531E-03 alpha_mix =  0.700 |ddv_scf|^2 =  3.881E-07

      iter #   4 total cpu time :   141.0 secs   av.it.:   8.6
      thresh= 6.230E-05 alpha_mix =  0.700 |ddv_scf|^2 =  3.761E-08

      iter #   5 total cpu time :   142.4 secs   av.it.:   8.5
      thresh= 1.939E-05 alpha_mix =  0.700 |ddv_scf|^2 =  2.215E-09

      iter #   6 total cpu time :   144.0 secs   av.it.:   8.6
      thresh= 4.706E-06 alpha_mix =  0.700 |ddv_scf|^2 =  4.293E-11

      iter #   7 total cpu time :   145.5 secs   av.it.:   8.2
      thresh= 6.552E-07 alpha_mix =  0.700 |ddv_scf|^2 =  2.685E-12

      iter #   8 total cpu time :   146.9 secs   av.it.:   8.1
      thresh= 1.639E-07 alpha_mix =  0.700 |ddv_scf|^2 =  2.035E-12

      iter #   9 total cpu time :   148.2 secs   av.it.:   7.7
      thresh= 1.426E-07 alpha_mix =  0.700 |ddv_scf|^2 =  3.537E-13

      iter #  10 total cpu time :   149.8 secs   av.it.:   7.8
      thresh= 5.948E-08 alpha_mix =  0.700 |ddv_scf|^2 =  8.899E-14

      iter #  11 total cpu time :   151.4 secs   av.it.:   8.1
      thresh= 2.983E-08 alpha_mix =  0.700 |ddv_scf|^2 =  2.163E-15

     End of self-consistent calculation

     Convergence has been achieved 


     Representation #  2 mode #   2

     Self-consistent Calculation

      iter #   1 total cpu time :   152.9 secs   av.it.:   6.7
      thresh= 1.000E-02 alpha_mix =  0.700 |ddv_scf|^2 =  5.138E-04

      iter #   2 total cpu time :   154.5 secs   av.it.:   8.2
      thresh= 2.267E-03 alpha_mix =  0.700 |ddv_scf|^2 =  1.247E-03

      iter #   3 total cpu time :   155.8 secs   av.it.:   7.2
      thresh= 3.531E-03 alpha_mix =  0.700 |ddv_scf|^2 =  3.883E-07

      iter #   4 total cpu time :   157.2 secs   av.it.:   8.6
      thresh= 6.231E-05 alpha_mix =  0.700 |ddv_scf|^2 =  3.761E-08

      iter #   5 total cpu time :   158.6 secs   av.it.:   8.5
      thresh= 1.939E-05 alpha_mix =  0.700 |ddv_scf|^2 =  2.216E-09

      iter #   6 total cpu time :   159.9 secs   av.it.:   8.7
      thresh= 4.707E-06 alpha_mix =  0.700 |ddv_scf|^2 =  4.288E-11

      iter #   7 total cpu time :   161.4 secs   av.it.:   8.2
      thresh= 6.548E-07 alpha_mix =  0.700 |ddv_scf|^2 =  2.696E-12

      iter #   8 total cpu time :   162.9 secs   av.it.:   8.1
      thresh= 1.642E-07 alpha_mix =  0.700 |ddv_scf|^2 =  2.064E-12

      iter #   9 total cpu time :   164.2 secs   av.it.:   7.8
      thresh= 1.437E-07 alpha_mix =  0.700 |ddv_scf|^2 =  3.515E-13

      iter #  10 total cpu time :   165.5 secs   av.it.:   7.8
      thresh= 5.929E-08 alpha_mix =  0.700 |ddv_scf|^2 =  8.973E-14

      iter #  11 total cpu time :   166.9 secs   av.it.:   8.1
      thresh= 2.996E-08 alpha_mix =  0.700 |ddv_scf|^2 =  2.190E-15

     End of self-consistent calculation

     Convergence has been achieved 


     Representation #  3 modes #   3  4

     Self-consistent Calculation

      iter #   1 total cpu time :   169.2 secs   av.it.:   6.0
      thresh= 1.000E-02 alpha_mix =  0.700 |ddv_scf|^2 =  7.301E-07

      iter #   2 total cpu time :   172.2 secs   av.it.:   9.5
      thresh= 8.544E-05 alpha_mix =  0.700 |ddv_scf|^2 =  1.608E-08

      iter #   3 total cpu time :   175.0 secs   av.it.:   9.1
      thresh= 1.268E-05 alpha_mix =  0.700 |ddv_scf|^2 =  1.227E-09

      iter #   4 total cpu time :   177.8 secs   av.it.:   9.0
      thresh= 3.502E-06 alpha_mix =  0.700 |ddv_scf|^2 =  1.581E-11

      iter #   5 total cpu time :   180.7 secs   av.it.:   8.3
      thresh= 3.976E-07 alpha_mix =  0.700 |ddv_scf|^2 =  9.668E-14

      iter #   6 total cpu time :   183.8 secs   av.it.:   9.0
      thresh= 3.109E-08 alpha_mix =  0.700 |ddv_scf|^2 =  1.715E-16

     End of self-consistent calculation

     Convergence has been achieved 


     Representation #  4 modes #   5  6

     Self-consistent Calculation

      iter #   1 total cpu time :   186.5 secs   av.it.:   6.0
      thresh= 1.000E-02 alpha_mix =  0.700 |ddv_scf|^2 =  7.301E-07

      iter #   2 total cpu time :   189.4 secs   av.it.:   9.4
      thresh= 8.544E-05 alpha_mix =  0.700 |ddv_scf|^2 =  1.609E-08

      iter #   3 total cpu time :   192.0 secs   av.it.:   8.9
      thresh= 1.268E-05 alpha_mix =  0.700 |ddv_scf|^2 =  1.227E-09

      iter #   4 total cpu time :   195.0 secs   av.it.:   8.8
      thresh= 3.503E-06 alpha_mix =  0.700 |ddv_scf|^2 =  1.583E-11

      iter #   5 total cpu time :   197.7 secs   av.it.:   8.2
      thresh= 3.978E-07 alpha_mix =  0.700 |ddv_scf|^2 =  9.794E-14

      iter #   6 total cpu time :   200.7 secs   av.it.:   8.8
      thresh= 3.129E-08 alpha_mix =  0.700 |ddv_scf|^2 =  1.719E-16

     End of self-consistent calculation

     Convergence has been achieved 

     Number of q in the star =    8
     List of q in the star:
          1  -0.333333333   0.333333333  -0.333333333
          2   0.333333333   0.333333333   0.333333333
          3  -0.333333333  -0.333333333  -0.333333333
          4   0.333333333  -0.333333333   0.333333333
          5   0.333333333  -0.333333333  -0.333333333
          6   0.333333333   0.333333333  -0.333333333
          7  -0.333333333  -0.333333333   0.333333333
          8  -0.333333333   0.333333333   0.333333333

     Diagonalizing the dynamical matrix

     q = (   -0.333333333   0.333333333  -0.333333333 ) 

 **************************************************************************
     freq (    1) =      14.642106 [THz] =     488.408083 [cm-1]
     freq (    2) =      14.642106 [THz] =     488.408083 [cm-1]
     freq (    3) =      25.754565 [THz] =     859.079802 [cm-1]
     freq (    4) =      36.920881 [THz] =    1231.548025 [cm-1]
     freq (    5) =      36.920881 [THz] =    1231.548025 [cm-1]
     freq (    6) =      39.143002 [THz] =    1305.670003 [cm-1]
 **************************************************************************

     Mode symmetry, C_3v (3m)   point group:

     freq (  1 -  2) =        488.4  [cm-1]   --> E    L_3           
     freq (  3 -  3) =        859.1  [cm-1]   --> A_1  L_1           
     freq (  4 -  5) =       1231.5  [cm-1]   --> E    L_3           
     freq (  6 -  6) =       1305.7  [cm-1]   --> A_1  L_1           

     Calculation of q =    0.5000000  -0.5000000   0.5000000

     G-vector sticks info
     --------------------
     sticks:   dense  smooth     PW     G-vecs:    dense   smooth      PW
     Sum         571     571    199                 8873     8873    1837


     Title: 
     default                                                                    


     bravais-lattice index     =            2
     lattice parameter (alat)  =       6.7569  a.u.
     unit-cell volume          =      77.1219 (a.u.)^3
     number of atoms/cell      =            2
     number of atomic types    =            1
     number of electrons       =         8.00
     number of Kohn-Sham states=            4
     kinetic-energy cutoff     =      90.0000  Ry
     charge density cutoff     =     360.0000  Ry
     Exchange-correlation      = PBE ( 1  4  3  4 0 0)

     celldm(1)=   6.756876  celldm(2)=   0.000000  celldm(3)=   0.000000
     celldm(4)=   0.000000  celldm(5)=   0.000000  celldm(6)=   0.000000

     crystal axes: (cart. coord. in units of alat)
               a(1) = (  -0.500000   0.000000   0.500000 )  
               a(2) = (   0.000000   0.500000   0.500000 )  
               a(3) = (  -0.500000   0.500000   0.000000 )  

     reciprocal axes: (cart. coord. in units 2 pi/alat)
               b(1) = ( -1.000000 -1.000000  1.000000 )  
               b(2) = (  1.000000  1.000000  1.000000 )  
               b(3) = ( -1.000000  1.000000 -1.000000 )  


     PseudoPot. # 1 for C  read from file:
     ../pseudo/C.pbe-n-kjpaw_psl.1.0.0.UPF
     MD5 check sum: 5f16ad9a65e90284d1d834d4ab3b0f7d
     Pseudo is Projector augmented-wave + core cor, Zval =  4.0
     Generated using "atomic" code by A. Dal Corso v.6.3
     Shape of augmentation charge: PSQ
     Using radial grid of 1073 points,  4 beta functions with: 
                l(1) =   0
                l(2) =   0
                l(3) =   1
                l(4) =   1
     Q(r) pseudized with 0 coefficients 


     atomic species   valence    mass     pseudopotential
        C              4.00    12.00000     C ( 1.00)

     48 Sym. Ops., with inversion, found



   Cartesian axes

     site n.     atom                  positions (alat units)
         1           C   tau(   1) = (  -0.1250000   0.1250000   0.1250000  )
         2           C   tau(   2) = (  -0.8750000   0.8750000   0.8750000  )

     number of k points=    26
                       cart. coord. in units 2pi/alat
        k(    1) = (   0.0000000   0.0000000   0.0000000), wk =   0.0312500
        k(    2) = (   0.5000000  -0.5000000   0.5000000), wk =   0.0000000
        k(    3) = (  -0.2500000   0.2500000  -0.2500000), wk =   0.0625000
        k(    4) = (   0.2500000  -0.2500000   0.2500000), wk =   0.0000000
        k(    5) = (   0.5000000  -0.5000000   0.5000000), wk =   0.0312500
        k(    6) = (   1.0000000  -1.0000000   1.0000000), wk =   0.0000000
        k(    7) = (   0.0000000   0.5000000   0.0000000), wk =   0.1875000
        k(    8) = (   0.5000000   0.0000000   0.5000000), wk =   0.0000000
        k(    9) = (   0.7500000  -0.2500000   0.7500000), wk =   0.1875000
        k(   10) = (   1.2500000  -0.7500000   1.2500000), wk =   0.0000000
        k(   11) = (   0.5000000   0.0000000   0.5000000), wk =   0.1875000
        k(   12) = (   1.0000000  -0.5000000   1.0000000), wk =   0.0000000
        k(   13) = (   0.0000000  -1.0000000   0.0000000), wk =   0.0937500
        k(   14) = (   0.5000000  -1.5000000   0.5000000), wk =   0.0000000
        k(   15) = (  -0.5000000  -1.0000000   0.0000000), wk =   0.1875000
        k(   16) = (   0.0000000  -1.5000000   0.5000000), wk =   0.0000000
        k(   17) = (  -0.2500000  -0.2500000  -0.2500000), wk =   0.1875000
        k(   18) = (   0.2500000  -0.7500000   0.2500000), wk =   0.0000000
        k(   19) = (   0.5000000   0.5000000   0.5000000), wk =   0.0937500
        k(   20) = (   1.0000000   0.0000000   1.0000000), wk =   0.0000000
        k(   21) = (   0.7500000   0.2500000   0.7500000), wk =   0.1875000
        k(   22) = (   1.2500000  -0.2500000   1.2500000), wk =   0.0000000
        k(   23) = (  -0.7500000   0.2500000   0.7500000), wk =   0.3750000
        k(   24) = (  -0.2500000  -0.2500000   1.2500000), wk =   0.0000000
        k(   25) = (  -0.5000000   0.0000000   0.5000000), wk =   0.1875000
        k(   26) = (   0.0000000  -0.5000000   1.0000000), wk =   0.0000000

     Dense  grid:     8873 G-vectors     FFT dimensions: (  30,  30,  30)

     Estimated max dynamical RAM per process >       9.96 MB

     Check: negative core charge=   -0.000013

     The potential is recalculated from file :
     /home/rr/repos/QE-exercises/diamond-lattice-relax/_ph0/diamond.save/charge-density

     Starting wfcs are    8 atomic wfcs
     Checking if some PAW data can be deallocated... 

     Band Structure Calculation
     Davidson diagonalization with overlap

     ethr =  1.25E-10,  avg # of iterations =  9.6

     total cpu time spent up to now is        8.4 secs

     End of band structure calculation

          k = 0.0000 0.0000 0.0000 (  1139 PWs)   bands (ev):

    -8.1424  13.2499  13.2499  13.2499

          k = 0.5000-0.5000 0.5000 (  1104 PWs)   bands (ev):

    -2.4059  -0.0589  10.4633  10.4633

          k =-0.2500 0.2500-0.2500 (  1101 PWs)   bands (ev):

    -6.4362   6.6845  11.5134  11.5134

          k = 0.2500-0.2500 0.2500 (  1101 PWs)   bands (ev):

    -6.4362   6.6845  11.5134  11.5134

          k = 0.5000-0.5000 0.5000 (  1104 PWs)   bands (ev):

    -2.4059  -0.0589  10.4633  10.4633

          k = 1.0000-1.0000 1.0000 (  1139 PWs)   bands (ev):

    -8.1424  13.2499  13.2499  13.2499

          k = 0.0000 0.5000 0.0000 (  1094 PWs)   bands (ev):

    -5.8696   8.7389   9.1509   9.1509

          k = 0.5000 0.0000 0.5000 (  1117 PWs)   bands (ev):

    -3.6987   4.5768   5.6813  10.2536

          k = 0.7500-0.2500 0.7500 (  1108 PWs)   bands (ev):

    -2.1536   2.5044   6.5387   8.3990

          k = 1.2500-0.7500 1.2500 (  1101 PWs)   bands (ev):

    -6.4362   6.6845  11.5134  11.5134

          k = 0.5000 0.0000 0.5000 (  1117 PWs)   bands (ev):

    -3.6987   4.5768   5.6813  10.2536

          k = 1.0000-0.5000 1.0000 (  1094 PWs)   bands (ev):

    -5.8696   8.7389   9.1509   9.1509

          k = 0.0000-1.0000 0.0000 (  1106 PWs)   bands (ev):

     0.5261   0.5261   6.9843   6.9843

          k = 0.5000-1.5000 0.5000 (  1104 PWs)   bands (ev):

    -2.4059  -0.0589  10.4633  10.4633

          k =-0.5000-1.0000 0.0000 (  1124 PWs)   bands (ev):

     1.3070   1.3070   4.9763   4.9763

          k = 0.0000-1.5000 0.5000 (  1117 PWs)   bands (ev):

    -3.6987   4.5768   5.6813  10.2536

          k =-0.2500-0.2500-0.2500 (  1101 PWs)   bands (ev):

    -6.4362   6.6845  11.5134  11.5134

          k = 0.2500-0.7500 0.2500 (  1108 PWs)   bands (ev):

    -2.1536   2.5044   6.5387   8.3990

          k = 0.5000 0.5000 0.5000 (  1104 PWs)   bands (ev):

    -2.4059  -0.0589  10.4633  10.4633

          k = 1.0000 0.0000 1.0000 (  1106 PWs)   bands (ev):

     0.5261   0.5261   6.9843   6.9843

          k = 0.7500 0.2500 0.7500 (  1108 PWs)   bands (ev):

    -2.1536   2.5044   6.5387   8.3990

          k = 1.2500-0.2500 1.2500 (  1108 PWs)   bands (ev):

    -2.1536   2.5044   6.5387   8.3990

          k =-0.7500 0.2500 0.7500 (  1108 PWs)   bands (ev):

    -2.1536   2.5044   6.5387   8.3990

          k =-0.2500-0.2500 1.2500 (  1108 PWs)   bands (ev):

    -2.1536   2.5044   6.5387   8.3990

          k =-0.5000 0.0000 0.5000 (  1117 PWs)   bands (ev):

    -3.6987   4.5768   5.6813  10.2536

          k = 0.0000-0.5000 1.0000 (  1124 PWs)   bands (ev):

     1.3070   1.3070   4.9763   4.9763

     highest occupied level (ev):    13.2499

     Writing output data file diamond.save/

     default                                                                    

     bravais-lattice index     =            2
     lattice parameter (alat)  =       6.7569  a.u.
     unit-cell volume          =      77.1219 (a.u.)^3
     number of atoms/cell      =            2
     number of atomic types    =            1
     kinetic-energy cut-off    =      90.0000  Ry
     charge density cut-off    =     360.0000  Ry
     convergence threshold     =      1.0E-14
     beta                      =       0.7000
     number of iterations used =            4
     Exchange-correlation      = PBE ( 1  4  3  4 0 0)


     celldm(1)=    6.75688  celldm(2)=    0.00000  celldm(3)=    0.00000
     celldm(4)=    0.00000  celldm(5)=    0.00000  celldm(6)=    0.00000

     crystal axes: (cart. coord. in units of alat)
               a(1) = ( -0.5000  0.0000  0.5000 )  
               a(2) = (  0.0000  0.5000  0.5000 )  
               a(3) = ( -0.5000  0.5000  0.0000 )  

     reciprocal axes: (cart. coord. in units 2 pi/alat)
               b(1) = ( -1.0000 -1.0000  1.0000 )  
               b(2) = (  1.0000  1.0000  1.0000 )  
               b(3) = ( -1.0000  1.0000 -1.0000 )  


     Atoms inside the unit cell: 

     Cartesian axes

     site n.  atom      mass           positions (alat units)
        1     C   12.0000   tau(    1) = (   -0.12500    0.12500    0.12500  )
        2     C   12.0000   tau(    2) = (   -0.87500    0.87500    0.87500  )

     Computing dynamical matrix for 
                    q = (   0.5000000  -0.5000000   0.5000000 )

     13 Sym.Ops. (with q -> -q+G )


     G cutoff =  416.3271  (   8873 G-vectors)     FFT grid: ( 30, 30, 30)
     number of k points=    26

     PseudoPot. # 1 for C  read from file:
     ../pseudo/C.pbe-n-kjpaw_psl.1.0.0.UPF
     MD5 check sum: 5f16ad9a65e90284d1d834d4ab3b0f7d
     Pseudo is Projector augmented-wave + core cor, Zval =  4.0
     Generated using "atomic" code by A. Dal Corso v.6.3
     Shape of augmentation charge: PSQ
     Using radial grid of 1073 points,  4 beta functions with: 
                l(1) =   0
                l(2) =   0
                l(3) =   1
                l(4) =   1
     Q(r) pseudized with 0 coefficients 


     Mode symmetry, D_3d (-3m)  point group:


     Atomic displacements:
     There are   4 irreducible representations

     Representation     1      1 modes -A_1g L_1  To be done

     Representation     2      2 modes -E_g  L_3  To be done

     Representation     3      1 modes -A_2u L_2'  To be done

     Representation     4      2 modes -E_u  L_3'  To be done



     Alpha used in Ewald sum =   2.8000
     PHONON       :   6m27.43s CPU   3m23.27s WALL



     Representation #  1 mode #   1

     Self-consistent Calculation

      iter #   1 total cpu time :   204.2 secs   av.it.:   5.8
      thresh= 1.000E-02 alpha_mix =  0.700 |ddv_scf|^2 =  2.993E-05

      iter #   2 total cpu time :   205.1 secs   av.it.:   8.1
      thresh= 5.471E-04 alpha_mix =  0.700 |ddv_scf|^2 =  1.369E-05

      iter #   3 total cpu time :   206.0 secs   av.it.:   7.5
      thresh= 3.700E-04 alpha_mix =  0.700 |ddv_scf|^2 =  4.019E-08

      iter #   4 total cpu time :   206.9 secs   av.it.:   7.9
      thresh= 2.005E-05 alpha_mix =  0.700 |ddv_scf|^2 =  5.596E-10

      iter #   5 total cpu time :   208.0 secs   av.it.:   7.5
      thresh= 2.366E-06 alpha_mix =  0.700 |ddv_scf|^2 =  3.540E-12

      iter #   6 total cpu time :   209.0 secs   av.it.:   7.2
      thresh= 1.881E-07 alpha_mix =  0.700 |ddv_scf|^2 =  6.994E-14

      iter #   7 total cpu time :   210.0 secs   av.it.:   7.6
      thresh= 2.645E-08 alpha_mix =  0.700 |ddv_scf|^2 =  8.065E-16

     End of self-consistent calculation

     Convergence has been achieved 


     Representation #  2 modes #   2  3

     Self-consistent Calculation

      iter #   1 total cpu time :   211.6 secs   av.it.:   5.8
      thresh= 1.000E-02 alpha_mix =  0.700 |ddv_scf|^2 =  1.292E-06

      iter #   2 total cpu time :   213.7 secs   av.it.:   8.7
      thresh= 1.137E-04 alpha_mix =  0.700 |ddv_scf|^2 =  1.695E-08

      iter #   3 total cpu time :   216.1 secs   av.it.:   8.1
      thresh= 1.302E-05 alpha_mix =  0.700 |ddv_scf|^2 =  1.546E-09

      iter #   4 total cpu time :   218.2 secs   av.it.:   8.0
      thresh= 3.932E-06 alpha_mix =  0.700 |ddv_scf|^2 =  1.600E-11

      iter #   5 total cpu time :   220.0 secs   av.it.:   7.3
      thresh= 3.999E-07 alpha_mix =  0.700 |ddv_scf|^2 =  3.044E-15

     End of self-consistent calculation

     Convergence has been achieved 


     Representation #  3 mode #   4

     Self-consistent Calculation

      iter #   1 total cpu time :   220.9 secs   av.it.:   6.5
      thresh= 1.000E-02 alpha_mix =  0.700 |ddv_scf|^2 =  2.802E-04

      iter #   2 total cpu time :   222.1 secs   av.it.:   8.4
      thresh= 1.674E-03 alpha_mix =  0.700 |ddv_scf|^2 =  2.919E-04

      iter #   3 total cpu time :   223.2 secs   av.it.:   7.7
      thresh= 1.708E-03 alpha_mix =  0.700 |ddv_scf|^2 =  9.027E-07

      iter #   4 total cpu time :   224.3 secs   av.it.:   8.0
      thresh= 9.501E-05 alpha_mix =  0.700 |ddv_scf|^2 =  7.124E-09

      iter #   5 total cpu time :   225.3 secs   av.it.:   8.2
      thresh= 8.441E-06 alpha_mix =  0.700 |ddv_scf|^2 =  1.232E-10

      iter #   6 total cpu time :   226.2 secs   av.it.:   7.7
      thresh= 1.110E-06 alpha_mix =  0.700 |ddv_scf|^2 =  2.822E-12

      iter #   7 total cpu time :   227.4 secs   av.it.:   7.2
      thresh= 1.680E-07 alpha_mix =  0.700 |ddv_scf|^2 =  2.099E-14

      iter #   8 total cpu time :   228.5 secs   av.it.:   7.7
      thresh= 1.449E-08 alpha_mix =  0.700 |ddv_scf|^2 =  3.061E-16

     End of self-consistent calculation

     Convergence has been achieved 


     Representation #  4 modes #   5  6

     Self-consistent Calculation

      iter #   1 total cpu time :   230.5 secs   av.it.:   5.7
      thresh= 1.000E-02 alpha_mix =  0.700 |ddv_scf|^2 =  2.798E-07

      iter #   2 total cpu time :   232.5 secs   av.it.:   9.0
      thresh= 5.290E-05 alpha_mix =  0.700 |ddv_scf|^2 =  1.526E-08

      iter #   3 total cpu time :   234.7 secs   av.it.:   8.6
      thresh= 1.235E-05 alpha_mix =  0.700 |ddv_scf|^2 =  5.595E-10

      iter #   4 total cpu time :   237.2 secs   av.it.:   8.7
      thresh= 2.365E-06 alpha_mix =  0.700 |ddv_scf|^2 =  9.591E-12

      iter #   5 total cpu time :   240.1 secs   av.it.:   7.8
      thresh= 3.097E-07 alpha_mix =  0.700 |ddv_scf|^2 =  2.004E-15

     End of self-consistent calculation

     Convergence has been achieved 

     Number of q in the star =    4
     List of q in the star:
          1   0.500000000  -0.500000000   0.500000000
          2   0.500000000   0.500000000   0.500000000
          3  -0.500000000   0.500000000   0.500000000
          4   0.500000000   0.500000000  -0.500000000

     Diagonalizing the dynamical matrix

     q = (    0.500000000  -0.500000000   0.500000000 ) 

 **************************************************************************
     freq (    1) =      16.311560 [THz] =     544.095073 [cm-1]
     freq (    2) =      16.311560 [THz] =     544.095073 [cm-1]
     freq (    3) =      30.824326 [THz] =    1028.188854 [cm-1]
     freq (    4) =      36.181976 [THz] =    1206.900799 [cm-1]
     freq (    5) =      36.181976 [THz] =    1206.900799 [cm-1]
     freq (    6) =      37.646446 [THz] =    1255.750254 [cm-1]
 **************************************************************************

     Mode symmetry, D_3d (-3m)  point group:

     freq (  1 -  2) =        544.1  [cm-1]   --> E_u  L_3'          
     freq (  3 -  3) =       1028.2  [cm-1]   --> A_2u L_2'          
     freq (  4 -  5) =       1206.9  [cm-1]   --> E_g  L_3           
     freq (  6 -  6) =       1255.8  [cm-1]   --> A_1g L_1           

     Calculation of q =    0.0000000   0.3333333   0.0000000

     G-vector sticks info
     --------------------
     sticks:   dense  smooth     PW     G-vecs:    dense   smooth      PW
     Sum         571     571    187                 8873     8873    1639


     Title: 
     default                                                                    


     bravais-lattice index     =            2
     lattice parameter (alat)  =       6.7569  a.u.
     unit-cell volume          =      77.1219 (a.u.)^3
     number of atoms/cell      =            2
     number of atomic types    =            1
     number of electrons       =         8.00
     number of Kohn-Sham states=            4
     kinetic-energy cutoff     =      90.0000  Ry
     charge density cutoff     =     360.0000  Ry
     Exchange-correlation      = PBE ( 1  4  3  4 0 0)

     celldm(1)=   6.756876  celldm(2)=   0.000000  celldm(3)=   0.000000
     celldm(4)=   0.000000  celldm(5)=   0.000000  celldm(6)=   0.000000

     crystal axes: (cart. coord. in units of alat)
               a(1) = (  -0.500000   0.000000   0.500000 )  
               a(2) = (   0.000000   0.500000   0.500000 )  
               a(3) = (  -0.500000   0.500000   0.000000 )  

     reciprocal axes: (cart. coord. in units 2 pi/alat)
               b(1) = ( -1.000000 -1.000000  1.000000 )  
               b(2) = (  1.000000  1.000000  1.000000 )  
               b(3) = ( -1.000000  1.000000 -1.000000 )  


     PseudoPot. # 1 for C  read from file:
     ../pseudo/C.pbe-n-kjpaw_psl.1.0.0.UPF
     MD5 check sum: 5f16ad9a65e90284d1d834d4ab3b0f7d
     Pseudo is Projector augmented-wave + core cor, Zval =  4.0
     Generated using "atomic" code by A. Dal Corso v.6.3
     Shape of augmentation charge: PSQ
     Using radial grid of 1073 points,  4 beta functions with: 
                l(1) =   0
                l(2) =   0
                l(3) =   1
                l(4) =   1
     Q(r) pseudized with 0 coefficients 


     atomic species   valence    mass     pseudopotential
        C              4.00    12.00000     C ( 1.00)

     48 Sym. Ops., with inversion, found



   Cartesian axes

     site n.     atom                  positions (alat units)
         1           C   tau(   1) = (  -0.1250000   0.1250000   0.1250000  )
         2           C   tau(   2) = (  -0.8750000   0.8750000   0.8750000  )

     number of k points=    36
                       cart. coord. in units 2pi/alat
        k(    1) = (   0.0000000   0.0000000   0.0000000), wk =   0.0312500
        k(    2) = (   0.0000000   0.3333333   0.0000000), wk =   0.0000000
        k(    3) = (  -0.2500000   0.2500000  -0.2500000), wk =   0.1250000
        k(    4) = (  -0.2500000   0.5833333  -0.2500000), wk =   0.0000000
        k(    5) = (   0.5000000  -0.5000000   0.5000000), wk =   0.1250000
        k(    6) = (   0.5000000  -0.1666667   0.5000000), wk =   0.0000000
        k(    7) = (   0.0000000   0.5000000   0.0000000), wk =   0.0312500
        k(    8) = (   0.0000000   0.8333333   0.0000000), wk =   0.0000000
        k(    9) = (   0.7500000  -0.2500000   0.7500000), wk =   0.1250000
        k(   10) = (   0.7500000   0.0833333   0.7500000), wk =   0.0000000
        k(   11) = (   0.5000000   0.0000000   0.5000000), wk =   0.1250000
        k(   12) = (   0.5000000   0.3333333   0.5000000), wk =   0.0000000
        k(   13) = (   0.0000000  -1.0000000   0.0000000), wk =   0.0312500
        k(   14) = (   0.0000000  -0.6666667   0.0000000), wk =   0.0000000
        k(   15) = (  -0.5000000  -1.0000000   0.0000000), wk =   0.1250000
        k(   16) = (  -0.5000000  -0.6666667   0.0000000), wk =   0.0000000
        k(   17) = (   0.2500000  -0.2500000   0.2500000), wk =   0.1250000
        k(   18) = (   0.2500000   0.0833333   0.2500000), wk =   0.0000000
        k(   19) = (   0.5000000   0.0000000   0.0000000), wk =   0.1250000
        k(   20) = (   0.5000000   0.3333333   0.0000000), wk =   0.0000000
        k(   21) = (   0.0000000  -0.5000000   0.0000000), wk =   0.0312500
        k(   22) = (   0.0000000  -0.1666667   0.0000000), wk =   0.0000000
        k(   23) = (  -0.2500000   0.7500000  -0.7500000), wk =   0.2500000
        k(   24) = (  -0.2500000   1.0833333  -0.7500000), wk =   0.0000000
        k(   25) = (   0.7500000   0.2500000   0.7500000), wk =   0.1250000
        k(   26) = (   0.7500000   0.5833333   0.7500000), wk =   0.0000000
        k(   27) = (  -0.2500000  -0.7500000  -0.7500000), wk =   0.2500000
        k(   28) = (  -0.2500000  -0.4166667  -0.7500000), wk =   0.0000000
        k(   29) = (   0.0000000   0.5000000  -0.5000000), wk =   0.1250000
        k(   30) = (   0.0000000   0.8333333  -0.5000000), wk =   0.0000000
        k(   31) = (   0.0000000  -0.5000000  -0.5000000), wk =   0.1250000
        k(   32) = (   0.0000000  -0.1666667  -0.5000000), wk =   0.0000000
        k(   33) = (  -1.0000000   0.0000000   0.0000000), wk =   0.0625000
        k(   34) = (  -1.0000000   0.3333333   0.0000000), wk =   0.0000000
        k(   35) = (  -1.0000000  -0.5000000   0.0000000), wk =   0.0625000
        k(   36) = (  -1.0000000  -0.1666667   0.0000000), wk =   0.0000000

     Dense  grid:     8873 G-vectors     FFT dimensions: (  30,  30,  30)

     Estimated max dynamical RAM per process >       9.94 MB

     Check: negative core charge=   -0.000013

     The potential is recalculated from file :
     /home/rr/repos/QE-exercises/diamond-lattice-relax/_ph0/diamond.save/charge-density

     Starting wfcs are    8 atomic wfcs
     Checking if some PAW data can be deallocated... 

     Band Structure Calculation
     Davidson diagonalization with overlap

     ethr =  1.25E-10,  avg # of iterations =  9.9

     total cpu time spent up to now is       11.8 secs

     End of band structure calculation

          k = 0.0000 0.0000 0.0000 (  1139 PWs)   bands (ev):

    -8.1424  13.2499  13.2499  13.2499

          k = 0.0000 0.3333 0.0000 (  1114 PWs)   bands (ev):

    -7.1258  10.6931  10.6931  11.0098

          k =-0.2500 0.2500-0.2500 (  1101 PWs)   bands (ev):

    -6.4362   6.6845  11.5134  11.5134

          k =-0.2500 0.5833-0.2500 (  1111 PWs)   bands (ev):

    -3.9928   3.5145   8.9953   9.2183

          k = 0.5000-0.5000 0.5000 (  1104 PWs)   bands (ev):

    -2.4059  -0.0589  10.4633  10.4633

          k = 0.5000-0.1667 0.5000 (  1120 PWs)   bands (ev):

    -3.4809   2.7554   7.6010  10.3042

          k = 0.0000 0.5000 0.0000 (  1094 PWs)   bands (ev):

    -5.8696   8.7389   9.1509   9.1509

          k = 0.0000 0.8333 0.0000 (  1110 PWs)   bands (ev):

    -1.9862   3.2754   7.2328   7.2328

          k = 0.7500-0.2500 0.7500 (  1108 PWs)   bands (ev):

    -2.1536   2.5044   6.5387   8.3990

          k = 0.7500 0.0833 0.7500 (  1126 PWs)   bands (ev):

    -0.2048   1.7904   4.3835   7.9689

          k = 0.5000 0.0000 0.5000 (  1117 PWs)   bands (ev):

    -3.6987   4.5768   5.6813  10.2536

          k = 0.5000 0.3333 0.5000 (  1117 PWs)   bands (ev):

    -2.8912   0.8714   9.6076  10.4090

          k = 0.0000-1.0000 0.0000 (  1106 PWs)   bands (ev):

     0.5261   0.5261   6.9843   6.9843

          k = 0.0000-0.6667 0.0000 (  1110 PWs)   bands (ev):

    -4.1424   6.0856   7.9675   7.9675

          k =-0.5000-1.0000 0.0000 (  1124 PWs)   bands (ev):

     1.3070   1.3070   4.9763   4.9763

          k =-0.5000-0.6667 0.0000 (  1114 PWs)   bands (ev):

    -2.1125   3.3834   4.7046   8.8215

          k = 0.2500-0.2500 0.2500 (  1101 PWs)   bands (ev):

    -6.4362   6.6845  11.5134  11.5134

          k = 0.2500 0.0833 0.2500 (  1114 PWs)   bands (ev):

    -6.9375   8.6096  10.5820  12.3689

          k = 0.5000 0.0000 0.0000 (  1094 PWs)   bands (ev):

    -5.8696   8.7389   9.1509   9.1509

          k = 0.5000 0.3333 0.0000 (  1105 PWs)   bands (ev):

    -4.8906   5.9987   7.0437  10.5642

          k = 0.0000-0.5000 0.0000 (  1094 PWs)   bands (ev):

    -5.8696   8.7389   9.1509   9.1509

          k = 0.0000-0.1667 0.0000 (  1115 PWs)   bands (ev):

    -7.8873  12.3452  12.3452  12.6346

          k =-0.2500 0.7500-0.7500 (  1108 PWs)   bands (ev):

    -2.1536   2.5044   6.5387   8.3990

          k =-0.2500 1.0833-0.7500 (  1106 PWs)   bands (ev):

    -2.5557   3.9674   6.3049   7.5824

          k = 0.7500 0.2500 0.7500 (  1108 PWs)   bands (ev):

    -2.1536   2.5044   6.5387   8.3990

          k = 0.7500 0.5833 0.7500 (  1108 PWs)   bands (ev):

    -5.4448   4.9260  10.3265  10.9037

          k =-0.2500-0.7500-0.7500 (  1108 PWs)   bands (ev):

    -2.1536   2.5044   6.5387   8.3990

          k =-0.2500-0.4167-0.7500 (  1114 PWs)   bands (ev):

    -1.5405   1.1789   6.8922   8.5990

          k = 0.0000 0.5000-0.5000 (  1117 PWs)   bands (ev):

    -3.6987   4.5768   5.6813  10.2536

          k = 0.0000 0.8333-0.5000 (  1114 PWs)   bands (ev):

    -0.3027   2.3969   4.3454   6.7390

          k = 0.0000-0.5000-0.5000 (  1117 PWs)   bands (ev):

    -3.6987   4.5768   5.6813  10.2536

          k = 0.0000-0.1667-0.5000 (  1105 PWs)   bands (ev):

    -5.6231   7.5186   8.4550  10.0292

          k =-1.0000 0.0000 0.0000 (  1106 PWs)   bands (ev):

     0.5261   0.5261   6.9843   6.9843

          k =-1.0000 0.3333 0.0000 (  1114 PWs)   bands (ev):

     1.0636   1.0636   5.4841   5.4841

          k =-1.0000-0.5000 0.0000 (  1124 PWs)   bands (ev):

     1.3070   1.3070   4.9763   4.9763

          k =-1.0000-0.1667 0.0000 (  1118 PWs)   bands (ev):

     0.6834   0.6834   6.4704   6.4704

     highest occupied level (ev):    13.2499

     Writing output data file diamond.save/

     default                                                                    

     bravais-lattice index     =            2
     lattice parameter (alat)  =       6.7569  a.u.
     unit-cell volume          =      77.1219 (a.u.)^3
     number of atoms/cell      =            2
     number of atomic types    =            1
     kinetic-energy cut-off    =      90.0000  Ry
     charge density cut-off    =     360.0000  Ry
     convergence threshold     =      1.0E-14
     beta                      =       0.7000
     number of iterations used =            4
     Exchange-correlation      = PBE ( 1  4  3  4 0 0)


     celldm(1)=    6.75688  celldm(2)=    0.00000  celldm(3)=    0.00000
     celldm(4)=    0.00000  celldm(5)=    0.00000  celldm(6)=    0.00000

     crystal axes: (cart. coord. in units of alat)
               a(1) = ( -0.5000  0.0000  0.5000 )  
               a(2) = (  0.0000  0.5000  0.5000 )  
               a(3) = ( -0.5000  0.5000  0.0000 )  

     reciprocal axes: (cart. coord. in units 2 pi/alat)
               b(1) = ( -1.0000 -1.0000  1.0000 )  
               b(2) = (  1.0000  1.0000  1.0000 )  
               b(3) = ( -1.0000  1.0000 -1.0000 )  


     Atoms inside the unit cell: 

     Cartesian axes

     site n.  atom      mass           positions (alat units)
        1     C   12.0000   tau(    1) = (   -0.12500    0.12500    0.12500  )
        2     C   12.0000   tau(    2) = (   -0.87500    0.87500    0.87500  )

     Computing dynamical matrix for 
                    q = (   0.0000000   0.3333333   0.0000000 )

      8 Sym.Ops. (no q -> -q+G )


     G cutoff =  416.3271  (   8873 G-vectors)     FFT grid: ( 30, 30, 30)
     number of k points=    36

     PseudoPot. # 1 for C  read from file:
     ../pseudo/C.pbe-n-kjpaw_psl.1.0.0.UPF
     MD5 check sum: 5f16ad9a65e90284d1d834d4ab3b0f7d
     Pseudo is Projector augmented-wave + core cor, Zval =  4.0
     Generated using "atomic" code by A. Dal Corso v.6.3
     Shape of augmentation charge: PSQ
     Using radial grid of 1073 points,  4 beta functions with: 
                l(1) =   0
                l(2) =   0
                l(3) =   1
                l(4) =   1
     Q(r) pseudized with 0 coefficients 


     Mode symmetry, C_4v (4mm)  point group:


     Atomic displacements:
     There are   4 irreducible representations

     Representation     1      1 modes -A_1  G_1 D_1  To be done

     Representation     2      1 modes -B_2  G_4 D_2'  To be done

     Representation     3      2 modes -E    G_5 D_5  To be done

     Representation     4      2 modes -E    G_5 D_5  To be done



     Alpha used in Ewald sum =   2.8000
     PHONON       :   7m50.86s CPU   4m 4.91s WALL



     Representation #  1 mode #   1

     Self-consistent Calculation

      iter #   1 total cpu time :   246.6 secs   av.it.:   6.5
      thresh= 1.000E-02 alpha_mix =  0.700 |ddv_scf|^2 =  6.300E-03

      iter #   2 total cpu time :   248.3 secs   av.it.:   7.3
      thresh= 7.937E-03 alpha_mix =  0.700 |ddv_scf|^2 =  3.306E-02

      iter #   3 total cpu time :   249.6 secs   av.it.:   6.7
      thresh= 1.000E-02 alpha_mix =  0.700 |ddv_scf|^2 =  3.997E-08

      iter #   4 total cpu time :   251.2 secs   av.it.:   7.9
      thresh= 1.999E-05 alpha_mix =  0.700 |ddv_scf|^2 =  8.914E-09

      iter #   5 total cpu time :   252.5 secs   av.it.:   7.3
      thresh= 9.441E-06 alpha_mix =  0.700 |ddv_scf|^2 =  5.407E-11

      iter #   6 total cpu time :   254.0 secs   av.it.:   6.8
      thresh= 7.353E-07 alpha_mix =  0.700 |ddv_scf|^2 =  3.860E-12

      iter #   7 total cpu time :   255.7 secs   av.it.:   6.8
      thresh= 1.965E-07 alpha_mix =  0.700 |ddv_scf|^2 =  2.252E-15

     End of self-consistent calculation

     Convergence has been achieved 


     Representation #  2 mode #   2

     Self-consistent Calculation

      iter #   1 total cpu time :   257.1 secs   av.it.:   5.6
      thresh= 1.000E-02 alpha_mix =  0.700 |ddv_scf|^2 =  4.868E-06

      iter #   2 total cpu time :   258.4 secs   av.it.:   8.4
      thresh= 2.206E-04 alpha_mix =  0.700 |ddv_scf|^2 =  9.091E-07

      iter #   3 total cpu time :   260.1 secs   av.it.:   8.3
      thresh= 9.535E-05 alpha_mix =  0.700 |ddv_scf|^2 =  1.300E-07

      iter #   4 total cpu time :   261.5 secs   av.it.:   8.1
      thresh= 3.605E-05 alpha_mix =  0.700 |ddv_scf|^2 =  1.390E-09

      iter #   5 total cpu time :   263.1 secs   av.it.:   8.1
      thresh= 3.728E-06 alpha_mix =  0.700 |ddv_scf|^2 =  1.723E-11

      iter #   6 total cpu time :   264.2 secs   av.it.:   7.3
      thresh= 4.150E-07 alpha_mix =  0.700 |ddv_scf|^2 =  3.026E-14

      iter #   7 total cpu time :   265.4 secs   av.it.:   8.0
      thresh= 1.740E-08 alpha_mix =  0.700 |ddv_scf|^2 =  9.792E-16

     End of self-consistent calculation

     Convergence has been achieved 


     Representation #  3 modes #   3  4

     Self-consistent Calculation

[...]
        k(   43) = (  -1.0000000   0.0000000   0.0000000), wk =   0.0312500
        k(   44) = (  -1.3333333  -1.0000000   0.0000000), wk =   0.0000000
        k(   45) = (   0.0000000   0.0000000   1.0000000), wk =   0.0312500
        k(   46) = (  -0.3333333  -1.0000000   1.0000000), wk =   0.0000000
        k(   47) = (   0.0000000  -1.0000000  -0.5000000), wk =   0.0625000
        k(   48) = (  -0.3333333  -2.0000000  -0.5000000), wk =   0.0000000
        k(   49) = (   0.5000000  -1.0000000   0.0000000), wk =   0.0312500
        k(   50) = (   0.1666667  -2.0000000   0.0000000), wk =   0.0000000
        k(   51) = (   0.0000000   0.5000000   1.0000000), wk =   0.0625000
        k(   52) = (  -0.3333333  -0.5000000   1.0000000), wk =   0.0000000

     Dense  grid:     8873 G-vectors     FFT dimensions: (  30,  30,  30)

     Estimated max dynamical RAM per process >       9.96 MB

     Check: negative core charge=   -0.000013

     The potential is recalculated from file :
     /home/rr/repos/QE-exercises/diamond-lattice-relax/_ph0/diamond.save/charge-density

     Starting wfcs are    8 atomic wfcs
     Checking if some PAW data can be deallocated... 

     Band Structure Calculation
     Davidson diagonalization with overlap

     ethr =  1.25E-10,  avg # of iterations =  9.8

     total cpu time spent up to now is       68.8 secs

     End of band structure calculation

          k = 0.0000 0.0000 0.0000 (  1139 PWs)   bands (ev):

    -8.1424  13.2499  13.2499  13.2499

          k =-0.3333-1.0000 0.0000 (  1114 PWs)   bands (ev):

     1.0636   1.0636   5.4841   5.4841

          k =-0.2500 0.2500-0.2500 (  1101 PWs)   bands (ev):

    -6.4362   6.6845  11.5134  11.5134

          k =-0.5833-0.7500-0.2500 (  1114 PWs)   bands (ev):

    -1.5405   1.1789   6.8922   8.5990

          k = 0.5000-0.5000 0.5000 (  1104 PWs)   bands (ev):

    -2.4059  -0.0589  10.4633  10.4633

          k = 0.1667-1.5000 0.5000 (  1120 PWs)   bands (ev):

    -3.4809   2.7554   7.6010  10.3042

          k = 0.0000 0.5000 0.0000 (  1094 PWs)   bands (ev):

    -5.8696   8.7389   9.1509   9.1509

          k =-0.3333-0.5000 0.0000 (  1105 PWs)   bands (ev):

    -4.8906   5.9987   7.0437  10.5642

          k = 0.7500-0.2500 0.7500 (  1108 PWs)   bands (ev):

    -2.1536   2.5044   6.5387   8.3990

          k = 0.4167-1.2500 0.7500 (  1111 PWs)   bands (ev):

    -3.9928   3.5145   8.9953   9.2183

          k = 0.5000 0.0000 0.5000 (  1117 PWs)   bands (ev):

    -3.6987   4.5768   5.6813  10.2536

          k = 0.1667-1.0000 0.5000 (  1114 PWs)   bands (ev):

    -0.3027   2.3969   4.3454   6.7390

          k = 0.0000-1.0000 0.0000 (  1106 PWs)   bands (ev):

     0.5261   0.5261   6.9843   6.9843

          k =-0.3333-2.0000 0.0000 (  1114 PWs)   bands (ev):

    -7.1258  10.6931  10.6931  11.0098

          k =-0.5000-1.0000 0.0000 (  1124 PWs)   bands (ev):

     1.3070   1.3070   4.9763   4.9763

          k =-0.8333-2.0000 0.0000 (  1110 PWs)   bands (ev):

    -1.9862   3.2754   7.2328   7.2328

          k = 0.2500 0.2500-0.2500 (  1101 PWs)   bands (ev):

    -6.4362   6.6845  11.5134  11.5134

          k =-0.0833-0.7500-0.2500 (  1106 PWs)   bands (ev):

    -2.5557   3.9674   6.3049   7.5824

          k = 0.5000 0.0000 0.0000 (  1094 PWs)   bands (ev):

    -5.8696   8.7389   9.1509   9.1509

          k = 0.1667-1.0000 0.0000 (  1118 PWs)   bands (ev):

     0.6834   0.6834   6.4704   6.4704

          k =-0.5000 0.0000 0.0000 (  1094 PWs)   bands (ev):

    -5.8696   8.7389   9.1509   9.1509

          k =-0.8333-1.0000 0.0000 (  1118 PWs)   bands (ev):

     0.6834   0.6834   6.4704   6.4704

          k = 0.0000 0.0000-0.5000 (  1094 PWs)   bands (ev):

    -5.8696   8.7389   9.1509   9.1509

          k =-0.3333-1.0000-0.5000 (  1114 PWs)   bands (ev):

    -2.1125   3.3834   4.7046   8.8215

          k =-0.7500-0.2500 0.7500 (  1108 PWs)   bands (ev):

    -2.1536   2.5044   6.5387   8.3990

          k =-1.0833-1.2500 0.7500 (  1114 PWs)   bands (ev):

    -6.9375   8.6096  10.5820  12.3689

          k =-0.2500 0.7500 0.7500 (  1108 PWs)   bands (ev):

    -2.1536   2.5044   6.5387   8.3990

          k =-0.5833-0.2500 0.7500 (  1114 PWs)   bands (ev):

    -1.5405   1.1789   6.8922   8.5990

          k = 0.2500 0.7500-0.7500 (  1108 PWs)   bands (ev):

    -2.1536   2.5044   6.5387   8.3990

          k =-0.0833-0.2500-0.7500 (  1106 PWs)   bands (ev):

    -2.5557   3.9674   6.3049   7.5824

          k = 0.7500-0.7500 0.2500 (  1108 PWs)   bands (ev):

    -2.1536   2.5044   6.5387   8.3990

          k = 0.4167-1.7500 0.2500 (  1108 PWs)   bands (ev):

    -5.4448   4.9260  10.3265  10.9037

          k =-0.7500-0.7500-0.2500 (  1108 PWs)   bands (ev):

    -2.1536   2.5044   6.5387   8.3990

          k =-1.0833-1.7500-0.2500 (  1126 PWs)   bands (ev):

    -0.2048   1.7904   4.3835   7.9689

          k =-0.5000 0.0000 0.5000 (  1117 PWs)   bands (ev):

    -3.6987   4.5768   5.6813  10.2536

          k =-0.8333-1.0000 0.5000 (  1105 PWs)   bands (ev):

    -5.6231   7.5186   8.4550  10.0292

          k = 0.0000 0.5000 0.5000 (  1117 PWs)   bands (ev):

    -3.6987   4.5768   5.6813  10.2536

          k =-0.3333-0.5000 0.5000 (  1117 PWs)   bands (ev):

    -2.8912   0.8714   9.6076  10.4090

          k = 0.5000-0.5000 0.0000 (  1117 PWs)   bands (ev):

    -3.6987   4.5768   5.6813  10.2536

          k = 0.1667-1.5000 0.0000 (  1105 PWs)   bands (ev):

    -5.6231   7.5186   8.4550  10.0292

          k =-0.5000-0.5000 0.0000 (  1117 PWs)   bands (ev):

    -3.6987   4.5768   5.6813  10.2536

          k =-0.8333-1.5000 0.0000 (  1114 PWs)   bands (ev):

    -0.3027   2.3969   4.3454   6.7390

          k =-1.0000 0.0000 0.0000 (  1106 PWs)   bands (ev):

     0.5261   0.5261   6.9843   6.9843

          k =-1.3333-1.0000 0.0000 (  1114 PWs)   bands (ev):

     1.0636   1.0636   5.4841   5.4841

          k = 0.0000 0.0000 1.0000 (  1106 PWs)   bands (ev):

     0.5261   0.5261   6.9843   6.9843

          k =-0.3333-1.0000 1.0000 (  1110 PWs)   bands (ev):

    -4.1424   6.0856   7.9675   7.9675

          k = 0.0000-1.0000-0.5000 (  1124 PWs)   bands (ev):

     1.3070   1.3070   4.9763   4.9763

          k =-0.3333-2.0000-0.5000 (  1105 PWs)   bands (ev):

    -4.8906   5.9987   7.0437  10.5642

          k = 0.5000-1.0000 0.0000 (  1124 PWs)   bands (ev):

     1.3070   1.3070   4.9763   4.9763

          k = 0.1667-2.0000 0.0000 (  1115 PWs)   bands (ev):

    -7.8873  12.3452  12.3452  12.6346

          k = 0.0000 0.5000 1.0000 (  1124 PWs)   bands (ev):

     1.3070   1.3070   4.9763   4.9763

          k =-0.3333-0.5000 1.0000 (  1114 PWs)   bands (ev):

    -2.1125   3.3834   4.7046   8.8215

     highest occupied level (ev):    13.2499

     Writing output data file diamond.save/

     default                                                                    

     bravais-lattice index     =            2
     lattice parameter (alat)  =       6.7569  a.u.
     unit-cell volume          =      77.1219 (a.u.)^3
     number of atoms/cell      =            2
     number of atomic types    =            1
     kinetic-energy cut-off    =      90.0000  Ry
     charge density cut-off    =     360.0000  Ry
     convergence threshold     =      1.0E-14
     beta                      =       0.7000
     number of iterations used =            4
     Exchange-correlation      = PBE ( 1  4  3  4 0 0)


     celldm(1)=    6.75688  celldm(2)=    0.00000  celldm(3)=    0.00000
     celldm(4)=    0.00000  celldm(5)=    0.00000  celldm(6)=    0.00000

     crystal axes: (cart. coord. in units of alat)
               a(1) = ( -0.5000  0.0000  0.5000 )  
               a(2) = (  0.0000  0.5000  0.5000 )  
               a(3) = ( -0.5000  0.5000  0.0000 )  

     reciprocal axes: (cart. coord. in units 2 pi/alat)
               b(1) = ( -1.0000 -1.0000  1.0000 )  
               b(2) = (  1.0000  1.0000  1.0000 )  
               b(3) = ( -1.0000  1.0000 -1.0000 )  


     Atoms inside the unit cell: 

     Cartesian axes

     site n.  atom      mass           positions (alat units)
        1     C   12.0000   tau(    1) = (   -0.12500    0.12500    0.12500  )
        2     C   12.0000   tau(    2) = (   -0.87500    0.87500    0.87500  )

     Computing dynamical matrix for 
                    q = (  -0.3333333  -1.0000000   0.0000000 )

      4 Sym.Ops. (no q -> -q+G )


     G cutoff =  416.3271  (   8873 G-vectors)     FFT grid: ( 30, 30, 30)
     number of k points=    52

     PseudoPot. # 1 for C  read from file:
     ../pseudo/C.pbe-n-kjpaw_psl.1.0.0.UPF
     MD5 check sum: 5f16ad9a65e90284d1d834d4ab3b0f7d
     Pseudo is Projector augmented-wave + core cor, Zval =  4.0
     Generated using "atomic" code by A. Dal Corso v.6.3
     Shape of augmentation charge: PSQ
     Using radial grid of 1073 points,  4 beta functions with: 
                l(1) =   0
                l(2) =   0
                l(3) =   1
                l(4) =   1
     Q(r) pseudized with 0 coefficients 



     Atomic displacements:
     There are   3 irreducible representations

     Representation     1      2 modes -  To be done

     Representation     2      2 modes -  To be done

     Representation     3      2 modes -  To be done



     Alpha used in Ewald sum =   2.8000
     PHONON       :  51m18.15s CPU  25m40.85s WALL



     Representation #  1 modes #   1  2

     Self-consistent Calculation

      iter #   1 total cpu time :  1543.8 secs   av.it.:   6.2
      thresh= 1.000E-02 alpha_mix =  0.700 |ddv_scf|^2 =  8.787E-06

      iter #   2 total cpu time :  1547.8 secs   av.it.:   9.7
      thresh= 2.964E-04 alpha_mix =  0.700 |ddv_scf|^2 =  5.201E-06

      iter #   3 total cpu time :  1551.6 secs   av.it.:   9.2
      thresh= 2.281E-04 alpha_mix =  0.700 |ddv_scf|^2 =  3.931E-08

      iter #   4 total cpu time :  1556.1 secs   av.it.:   9.3
      thresh= 1.983E-05 alpha_mix =  0.700 |ddv_scf|^2 =  1.024E-09

      iter #   5 total cpu time :  1560.1 secs   av.it.:   9.1
      thresh= 3.200E-06 alpha_mix =  0.700 |ddv_scf|^2 =  3.913E-11

      iter #   6 total cpu time :  1563.8 secs   av.it.:   9.1
      thresh= 6.256E-07 alpha_mix =  0.700 |ddv_scf|^2 =  8.648E-13

      iter #   7 total cpu time :  1567.5 secs   av.it.:   8.7
      thresh= 9.299E-08 alpha_mix =  0.700 |ddv_scf|^2 =  3.067E-15

     End of self-consistent calculation

     Convergence has been achieved 


     Representation #  2 modes #   3  4

     Self-consistent Calculation

      iter #   1 total cpu time :  1570.7 secs   av.it.:   6.2
      thresh= 1.000E-02 alpha_mix =  0.700 |ddv_scf|^2 =  6.877E-06

      iter #   2 total cpu time :  1574.3 secs   av.it.:   9.5
      thresh= 2.622E-04 alpha_mix =  0.700 |ddv_scf|^2 =  1.454E-06

      iter #   3 total cpu time :  1578.6 secs   av.it.:   9.5
      thresh= 1.206E-04 alpha_mix =  0.700 |ddv_scf|^2 =  1.314E-07

      iter #   4 total cpu time :  1582.3 secs   av.it.:   9.1
      thresh= 3.625E-05 alpha_mix =  0.700 |ddv_scf|^2 =  1.379E-09

      iter #   5 total cpu time :  1586.4 secs   av.it.:   8.9
      thresh= 3.713E-06 alpha_mix =  0.700 |ddv_scf|^2 =  3.304E-11

      iter #   6 total cpu time :  1590.4 secs   av.it.:   9.1
      thresh= 5.748E-07 alpha_mix =  0.700 |ddv_scf|^2 =  8.492E-13

      iter #   7 total cpu time :  1594.2 secs   av.it.:   8.6
      thresh= 9.215E-08 alpha_mix =  0.700 |ddv_scf|^2 =  9.048E-16

     End of self-consistent calculation

     Convergence has been achieved 


     Representation #  3 modes #   5  6

     Self-consistent Calculation

      iter #   1 total cpu time :  1597.5 secs   av.it.:   6.0
      thresh= 1.000E-02 alpha_mix =  0.700 |ddv_scf|^2 =  3.736E-06

      iter #   2 total cpu time :  1601.9 secs   av.it.:   9.6
      thresh= 1.933E-04 alpha_mix =  0.700 |ddv_scf|^2 =  1.671E-06

      iter #   3 total cpu time :  1606.0 secs   av.it.:   9.2
      thresh= 1.293E-04 alpha_mix =  0.700 |ddv_scf|^2 =  4.200E-08

      iter #   4 total cpu time :  1609.9 secs   av.it.:   9.4
      thresh= 2.049E-05 alpha_mix =  0.700 |ddv_scf|^2 =  1.103E-09

      iter #   5 total cpu time :  1614.0 secs   av.it.:   9.2
      thresh= 3.321E-06 alpha_mix =  0.700 |ddv_scf|^2 =  2.321E-11

      iter #   6 total cpu time :  1617.8 secs   av.it.:   8.9
      thresh= 4.817E-07 alpha_mix =  0.700 |ddv_scf|^2 =  6.109E-13

      iter #   7 total cpu time :  1621.5 secs   av.it.:   8.7
      thresh= 7.816E-08 alpha_mix =  0.700 |ddv_scf|^2 =  1.615E-15

     End of self-consistent calculation

     Convergence has been achieved 

     Number of q in the star =   12
     List of q in the star:
          1  -0.333333333  -1.000000000   0.000000000
          2   0.000000000  -1.000000000  -0.333333333
          3   0.000000000  -1.000000000   0.333333333
          4   0.333333333  -1.000000000   0.000000000
          5  -1.000000000   0.000000000  -0.333333333
          6   1.000000000   0.000000000   0.333333333
          7   0.000000000   0.333333333   1.000000000
          8   0.000000000  -0.333333333  -1.000000000
          9  -1.000000000  -0.333333333   0.000000000
         10   1.000000000   0.333333333   0.000000000
         11  -0.333333333   0.000000000   1.000000000
         12   0.333333333   0.000000000   1.000000000

     Diagonalizing the dynamical matrix

     q = (   -0.333333333  -1.000000000   0.000000000 ) 

 **************************************************************************
     freq (    1) =      26.399696 [THz] =     880.599056 [cm-1]
     freq (    2) =      26.399696 [THz] =     880.599056 [cm-1]
     freq (    3) =      30.390520 [THz] =    1013.718636 [cm-1]
     freq (    4) =      30.390520 [THz] =    1013.718636 [cm-1]
     freq (    5) =      34.796795 [THz] =    1160.696160 [cm-1]
     freq (    6) =      34.796795 [THz] =    1160.696160 [cm-1]
 **************************************************************************

     init_run     :      4.58s CPU      3.48s WALL (      15 calls)
     electrons    :    135.71s CPU     65.14s WALL (      15 calls)

     Called by init_run:
     wfcinit      :      0.00s CPU      0.00s WALL (      15 calls)
     potinit      :      0.81s CPU      0.83s WALL (      15 calls)
     hinit0       :      3.36s CPU      2.44s WALL (      15 calls)

     Called by electrons:
     c_bands      :    135.67s CPU     65.11s WALL (      15 calls)
     v_of_rho     :      0.14s CPU      0.15s WALL (      16 calls)
     newd         :      0.15s CPU      0.10s WALL (      16 calls)
     PAW_pot      :      0.70s CPU      0.71s WALL (      16 calls)

     Called by c_bands:
     init_us_2    :     11.70s CPU      5.16s WALL (   22733 calls)
     cegterg      :    112.86s CPU     54.39s WALL (     832 calls)

     Called by sum_band:

     Called by *egterg:
     h_psi        :   2199.43s CPU   1031.32s WALL (  196707 calls)
     s_psi        :     49.37s CPU     24.97s WALL (  403615 calls)
     g_psi        :      0.56s CPU      0.24s WALL (    8172 calls)
     cdiaghg      :      1.56s CPU      0.71s WALL (    9004 calls)

     Called by h_psi:
     h_psi:pot    :   2195.32s CPU   1029.57s WALL (  196707 calls)
     h_psi:calbec :    315.55s CPU    244.67s WALL (  196707 calls)
     vloc_psi     :   1856.33s CPU    773.44s WALL (  196707 calls)
     add_vuspsi   :     22.11s CPU     10.90s WALL (  196707 calls)

     General routines
     calbec       :    438.23s CPU    331.60s WALL (  444580 calls)
     fft          :     29.61s CPU     13.41s WALL (   12200 calls)
     ffts         :      8.19s CPU      3.41s WALL (    3144 calls)
     fftw         :   2117.12s CPU    883.18s WALL ( 1773038 calls)
     davcio       :      8.66s CPU      4.19s WALL (  105972 calls)

     Parallel routines

     PHONON       :  54m15.49s CPU  27m 1.59s WALL

     INITIALIZATION: 
     phq_setup    :      1.44s CPU      0.70s WALL (      16 calls)
     phq_init     :     38.68s CPU     20.74s WALL (      16 calls)

     phq_init     :     38.68s CPU     20.74s WALL (      16 calls)
     set_drhoc    :      5.70s CPU      4.04s WALL (      48 calls)
     init_vloc    :      0.07s CPU      0.03s WALL (      16 calls)
     init_us_1    :      3.06s CPU      2.16s WALL (      16 calls)
     newd         :      0.15s CPU      0.10s WALL (      16 calls)
     dvanqq       :      2.72s CPU      1.21s WALL (      16 calls)
     drho         :     26.25s CPU     12.95s WALL (      16 calls)

     DYNAMICAL MATRIX:
     dynmat0      :      6.00s CPU      3.64s WALL (      16 calls)
     phqscf       :   3047.26s CPU   1516.13s WALL (      16 calls)
     dynmatrix    :      0.16s CPU      0.09s WALL (      16 calls)

     phqscf       :   3047.26s CPU   1516.13s WALL (      16 calls)
     solve_linter :   3038.14s CPU   1510.79s WALL (      76 calls)
     drhodv       :      6.91s CPU      4.11s WALL (      76 calls)

     dynmat0      :      6.00s CPU      3.64s WALL (      16 calls)
     dynmat_us    :      1.20s CPU      0.56s WALL (      16 calls)
     d2ionq       :      0.13s CPU      0.05s WALL (      16 calls)
     dynmatcc     :      4.67s CPU      3.02s WALL (      16 calls)

     dynmat_us    :      1.20s CPU      0.56s WALL (      16 calls)
     addusdynmat  :      0.00s CPU      0.00s WALL (      16 calls)

     phqscf       :   3047.26s CPU   1516.13s WALL (      16 calls)
     solve_linter :   3038.14s CPU   1510.79s WALL (      76 calls)

     solve_linter :   3038.14s CPU   1510.79s WALL (      76 calls)
     dvqpsi_us    :     42.51s CPU     19.16s WALL (    2592 calls)
     ortho        :     40.58s CPU     29.90s WALL (   20013 calls)
     cgsolve      :   2233.17s CPU   1049.78s WALL (   20013 calls)
     incdrhoscf   :    257.49s CPU    120.72s WALL (   20013 calls)
     addusddens   :     21.81s CPU      9.82s WALL (     665 calls)
     vpsifft      :    174.65s CPU     75.30s WALL (   17325 calls)
     dv_of_drho   :     26.49s CPU     11.91s WALL (     723 calls)
     mix_pot      :      2.74s CPU      1.52s WALL (     594 calls)
     psymdvscf    :      9.83s CPU      4.40s WALL (     589 calls)
     newdq        :      4.14s CPU      4.19s WALL (     594 calls)
     adddvscf     :      2.86s CPU      1.31s WALL (   17421 calls)
     drhodvus     :      0.04s CPU      0.07s WALL (      76 calls)

     dvqpsi_us    :     42.51s CPU     19.16s WALL (    2592 calls)
     dvqpsi_us_on :      7.74s CPU      4.51s WALL (    2592 calls)

     cgsolve      :   2233.17s CPU   1049.78s WALL (   20013 calls)
     ch_psi       :   2211.77s CPU   1040.67s WALL (  186871 calls)

     ch_psi       :   2211.77s CPU   1040.67s WALL (  186871 calls)
     h_psi        :   2199.43s CPU   1031.32s WALL (  196707 calls)
     last         :    100.32s CPU     50.59s WALL (  186871 calls)

     h_psi        :   2199.43s CPU   1031.32s WALL (  196707 calls)
     add_vuspsi   :     22.11s CPU     10.90s WALL (  196707 calls)

     incdrhoscf   :    257.49s CPU    120.72s WALL (   20013 calls)
     addusdbec    :     39.96s CPU     30.67s WALL (   22557 calls)

     drhodvus     :      0.04s CPU      0.07s WALL (      76 calls)

      General routines
     calbec       :    438.23s CPU    331.60s WALL (  444580 calls)
     fft          :     29.61s CPU     13.41s WALL (   12200 calls)
     ffts         :      8.19s CPU      3.41s WALL (    3144 calls)
     fftw         :   2117.12s CPU    883.18s WALL ( 1773038 calls)
     davcio       :      8.66s CPU      4.19s WALL (  105972 calls)
     write_rec    :      0.83s CPU      0.73s WALL (     670 calls)


     PHONON       :  54m15.49s CPU  27m 1.59s WALL


   This run was terminated on:  22:10:31  12May2023            

=------------------------------------------------------------------------------=
   JOB DONE.
=------------------------------------------------------------------------------=
