
     Program PWSCF v.6.4.1 starts on 12May2023 at 21:35:17 

     This program is part of the open-source Quantum ESPRESSO suite
     for quantum simulation of materials; please cite
         "P. Giannozzi et al., J. Phys.:Condens. Matter 21 395502 (2009);
         "P. Giannozzi et al., J. Phys.:Condens. Matter 29 465901 (2017);
          URL http://www.quantum-espresso.org", 
     in publications or presentations arising from this work. More details at
     http://www.quantum-espresso.org/quote

     Parallel version (MPI), running on     1 processors

     MPI processes distributed on     1 nodes
     Reading input from diamond.in

     Current dimensions of program PWSCF are:
     Max number of different atomic species (ntypx) = 10
     Max number of k-points (npk) =  40000
     Max angular momentum in pseudopotentials (lmaxx) =  3
               file C.pbe-n-kjpaw_psl.1.0.0.UPF: wavefunction(s)  2S 2P renormalized

     Subspace diagonalization in iterative solution of the eigenvalue problem:
     a serial algorithm will be used


     G-vector sticks info
     --------------------
     sticks:   dense  smooth     PW     G-vecs:    dense   smooth      PW
     Sum         571     571    169                 8873     8873    1471



     bravais-lattice index     =            2
     lattice parameter (alat)  =       6.7569  a.u.
     unit-cell volume          =      77.1219 (a.u.)^3
     number of atoms/cell      =            2
     number of atomic types    =            1
     number of electrons       =         8.00
     number of Kohn-Sham states=            4
     kinetic-energy cutoff     =      90.0000  Ry
     charge density cutoff     =     360.0000  Ry
     convergence threshold     =      1.0E-08
     mixing beta               =       0.2000
     number of iterations used =            8  plain     mixing
     Exchange-correlation      = SLA PW PBX PBC ( 1  4  3  4 0 0)

     celldm(1)=   6.756876  celldm(2)=   0.000000  celldm(3)=   0.000000
     celldm(4)=   0.000000  celldm(5)=   0.000000  celldm(6)=   0.000000

     crystal axes: (cart. coord. in units of alat)
               a(1) = (  -0.500000   0.000000   0.500000 )  
               a(2) = (   0.000000   0.500000   0.500000 )  
               a(3) = (  -0.500000   0.500000   0.000000 )  

     reciprocal axes: (cart. coord. in units 2 pi/alat)
               b(1) = ( -1.000000 -1.000000  1.000000 )  
               b(2) = (  1.000000  1.000000  1.000000 )  
               b(3) = ( -1.000000  1.000000 -1.000000 )  


     PseudoPot. # 1 for C  read from file:
     ../pseudo/C.pbe-n-kjpaw_psl.1.0.0.UPF
     MD5 check sum: 5f16ad9a65e90284d1d834d4ab3b0f7d
     Pseudo is Projector augmented-wave + core cor, Zval =  4.0
     Generated using "atomic" code by A. Dal Corso v.6.3
     Shape of augmentation charge: PSQ
     Using radial grid of 1073 points,  4 beta functions with: 
                l(1) =   0
                l(2) =   0
                l(3) =   1
                l(4) =   1
     Q(r) pseudized with 0 coefficients 


     atomic species   valence    mass     pseudopotential
        C              4.00    12.00000     C ( 1.00)

     48 Sym. Ops., with inversion, found (36 have fractional translation)



   Cartesian axes

     site n.     atom                  positions (alat units)
         1           C   tau(   1) = (  -0.1250000   0.1250000   0.1250000  )
         2           C   tau(   2) = (  -0.8750000   0.8750000   0.8750000  )

     number of k points=     8
                       cart. coord. in units 2pi/alat
        k(    1) = (   0.0000000   0.0000000   0.0000000), wk =   0.0312500
        k(    2) = (  -0.2500000   0.2500000  -0.2500000), wk =   0.2500000
        k(    3) = (   0.5000000  -0.5000000   0.5000000), wk =   0.1250000
        k(    4) = (   0.0000000   0.5000000   0.0000000), wk =   0.1875000
        k(    5) = (   0.7500000  -0.2500000   0.7500000), wk =   0.7500000
        k(    6) = (   0.5000000   0.0000000   0.5000000), wk =   0.3750000
        k(    7) = (   0.0000000  -1.0000000   0.0000000), wk =   0.0937500
        k(    8) = (  -0.5000000  -1.0000000   0.0000000), wk =   0.1875000

     Dense  grid:     8873 G-vectors     FFT dimensions: (  30,  30,  30)

     Estimated max dynamical RAM per process >      12.99 MB

     Check: negative core charge=   -0.000013

     Initial potential from superposition of free atoms

     starting charge    7.99992, renormalised to    8.00000
     Starting wfcs are    8 randomized atomic wfcs
     Checking if some PAW data can be deallocated... 

     total cpu time spent up to now is        0.5 secs

     Self-consistent Calculation

     iteration #  1     ecut=    90.00 Ry     beta= 0.20
     Davidson diagonalization with overlap
     ethr =  1.00E-04,  avg # of iterations =  3.9

     total cpu time spent up to now is        0.9 secs

     total energy              =     -36.88201883 Ry
     Harris-Foulkes estimate   =     -36.90462426 Ry
     estimated scf accuracy    <       0.11989531 Ry

     iteration #  2     ecut=    90.00 Ry     beta= 0.20
     Davidson diagonalization with overlap
     ethr =  1.50E-03,  avg # of iterations =  1.0

     total cpu time spent up to now is        1.1 secs

     total energy              =     -36.85197354 Ry
     Harris-Foulkes estimate   =     -36.88276688 Ry
     estimated scf accuracy    <       0.06772322 Ry

     iteration #  3     ecut=    90.00 Ry     beta= 0.20
     Davidson diagonalization with overlap
     ethr =  8.47E-04,  avg # of iterations =  1.6

     total cpu time spent up to now is        1.4 secs

     total energy              =     -36.85820310 Ry
     Harris-Foulkes estimate   =     -36.85821959 Ry
     estimated scf accuracy    <       0.00052404 Ry

     iteration #  4     ecut=    90.00 Ry     beta= 0.20
     Davidson diagonalization with overlap
     ethr =  6.55E-06,  avg # of iterations =  2.5

     total cpu time spent up to now is        1.6 secs

     total energy              =     -36.85846959 Ry
     Harris-Foulkes estimate   =     -36.85846230 Ry
     estimated scf accuracy    <       0.00002278 Ry

     iteration #  5     ecut=    90.00 Ry     beta= 0.20
     Davidson diagonalization with overlap
     ethr =  2.85E-07,  avg # of iterations =  2.0

     total cpu time spent up to now is        1.8 secs

     total energy              =     -36.85847341 Ry
     Harris-Foulkes estimate   =     -36.85847256 Ry
     estimated scf accuracy    <       0.00000118 Ry

     iteration #  6     ecut=    90.00 Ry     beta= 0.20
     Davidson diagonalization with overlap
     ethr =  1.48E-08,  avg # of iterations =  2.1

     total cpu time spent up to now is        2.0 secs

     total energy              =     -36.85847384 Ry
     Harris-Foulkes estimate   =     -36.85847355 Ry
     estimated scf accuracy    <       0.00000041 Ry

     iteration #  7     ecut=    90.00 Ry     beta= 0.20
     Davidson diagonalization with overlap
     ethr =  5.14E-09,  avg # of iterations =  2.0

     total cpu time spent up to now is        2.2 secs

     End of self-consistent calculation

          k = 0.0000 0.0000 0.0000 (  1139 PWs)   bands (ev):

    -8.1424  13.2499  13.2499  13.2499

          k =-0.2500 0.2500-0.2500 (  1101 PWs)   bands (ev):

    -6.4361   6.6846  11.5134  11.5134

          k = 0.5000-0.5000 0.5000 (  1104 PWs)   bands (ev):

    -2.4058  -0.0589  10.4633  10.4633

          k = 0.0000 0.5000 0.0000 (  1094 PWs)   bands (ev):

    -5.8696   8.7389   9.1509   9.1509

          k = 0.7500-0.2500 0.7500 (  1108 PWs)   bands (ev):

    -2.1536   2.5045   6.5387   8.3990

          k = 0.5000 0.0000 0.5000 (  1117 PWs)   bands (ev):

    -3.6987   4.5768   5.6814  10.2537

          k = 0.0000-1.0000 0.0000 (  1106 PWs)   bands (ev):

     0.5261   0.5261   6.9844   6.9844

          k =-0.5000-1.0000 0.0000 (  1124 PWs)   bands (ev):

     1.3070   1.3070   4.9764   4.9764

     highest occupied level (ev):    13.2499

!    total energy              =     -36.85847391 Ry
     Harris-Foulkes estimate   =     -36.85847390 Ry
     estimated scf accuracy    <          1.7E-09 Ry

     total all-electron energy =      -152.386668 Ry

     The total energy is the sum of the following terms:

     one-electron contribution =       8.38331336 Ry
     hartree contribution      =       1.96401751 Ry
     xc contribution           =      -9.37091963 Ry
     ewald contribution        =     -25.51142561 Ry
     one-center paw contrib.   =     -12.32345953 Ry

     convergence has been achieved in   7 iterations

     Writing output data file diamond.save/

     init_run     :      0.46s CPU      0.33s WALL (       1 calls)
     electrons    :      3.17s CPU      1.66s WALL (       1 calls)

     Called by init_run:
     wfcinit      :      0.27s CPU      0.14s WALL (       1 calls)
     potinit      :      0.05s CPU      0.05s WALL (       1 calls)
     hinit0       :      0.12s CPU      0.12s WALL (       1 calls)

     Called by electrons:
     c_bands      :      1.53s CPU      0.75s WALL (       7 calls)
     sum_band     :      0.39s CPU      0.21s WALL (       7 calls)
     v_of_rho     :      0.27s CPU      0.14s WALL (       8 calls)
     newd         :      0.05s CPU      0.05s WALL (       8 calls)
     PAW_pot      :      0.94s CPU      0.55s WALL (       8 calls)
     mix_rho      :      0.02s CPU      0.01s WALL (       7 calls)

     Called by c_bands:
     init_us_2    :      0.05s CPU      0.02s WALL (     120 calls)
     cegterg      :      1.44s CPU      0.72s WALL (      56 calls)

     Called by sum_band:
     sum_band:bec :      0.00s CPU      0.00s WALL (      56 calls)
     addusdens    :      0.08s CPU      0.04s WALL (       7 calls)

     Called by *egterg:
     h_psi        :      1.56s CPU      0.79s WALL (     185 calls)
     s_psi        :      0.04s CPU      0.01s WALL (     185 calls)
     g_psi        :      0.01s CPU      0.00s WALL (     121 calls)
     cdiaghg      :      0.02s CPU      0.01s WALL (     177 calls)

     Called by h_psi:
     h_psi:pot    :      1.55s CPU      0.79s WALL (     185 calls)
     h_psi:calbec :      0.21s CPU      0.21s WALL (     185 calls)
     vloc_psi     :      1.32s CPU      0.57s WALL (     185 calls)
     add_vuspsi   :      0.02s CPU      0.01s WALL (     185 calls)

     General routines
     calbec       :      0.24s CPU      0.25s WALL (     241 calls)
     fft          :      0.20s CPU      0.11s WALL (      88 calls)
     ffts         :      0.01s CPU      0.01s WALL (       7 calls)
     fftw         :      1.42s CPU      0.61s WALL (    1580 calls)

     Parallel routines

     PWSCF        :      3.84s CPU      2.20s WALL


   This run was terminated on:  21:35:19  12May2023            

=------------------------------------------------------------------------------=
   JOB DONE.
=------------------------------------------------------------------------------=
