
     Program PWSCF v.6.4.1 starts on 12May2023 at 20:21:32 

     This program is part of the open-source Quantum ESPRESSO suite
     for quantum simulation of materials; please cite
         "P. Giannozzi et al., J. Phys.:Condens. Matter 21 395502 (2009);
         "P. Giannozzi et al., J. Phys.:Condens. Matter 29 465901 (2017);
          URL http://www.quantum-espresso.org", 
     in publications or presentations arising from this work. More details at
     http://www.quantum-espresso.org/quote

     Parallel version (MPI), running on     1 processors

     MPI processes distributed on     1 nodes
     Waiting for input...
     Reading input from standard input

     Current dimensions of program PWSCF are:
     Max number of different atomic species (ntypx) = 10
     Max number of k-points (npk) =  40000
     Max angular momentum in pseudopotentials (lmaxx) =  3
               file C.pbe-n-kjpaw_psl.1.0.0.UPF: wavefunction(s)  2S 2P renormalized

     Subspace diagonalization in iterative solution of the eigenvalue problem:
     a serial algorithm will be used


     G-vector sticks info
     --------------------
     sticks:   dense  smooth     PW     G-vecs:    dense   smooth      PW
     Sum         421     421    127                 5601     5601     965



     bravais-lattice index     =            2
     lattice parameter (alat)  =       5.8000  a.u.
     unit-cell volume          =      48.7780 (a.u.)^3
     number of atoms/cell      =            2
     number of atomic types    =            1
     number of electrons       =         8.00
     number of Kohn-Sham states=            4
     kinetic-energy cutoff     =      90.0000  Ry
     charge density cutoff     =     360.0000  Ry
     convergence threshold     =      1.0E-08
     mixing beta               =       0.2000
     number of iterations used =            8  plain     mixing
     Exchange-correlation      = SLA PW PBX PBC ( 1  4  3  4 0 0)

     celldm(1)=   5.800000  celldm(2)=   0.000000  celldm(3)=   0.000000
     celldm(4)=   0.000000  celldm(5)=   0.000000  celldm(6)=   0.000000

     crystal axes: (cart. coord. in units of alat)
               a(1) = (  -0.500000   0.000000   0.500000 )  
               a(2) = (   0.000000   0.500000   0.500000 )  
               a(3) = (  -0.500000   0.500000   0.000000 )  

     reciprocal axes: (cart. coord. in units 2 pi/alat)
               b(1) = ( -1.000000 -1.000000  1.000000 )  
               b(2) = (  1.000000  1.000000  1.000000 )  
               b(3) = ( -1.000000  1.000000 -1.000000 )  


     PseudoPot. # 1 for C  read from file:
     ../../pseudo/C.pbe-n-kjpaw_psl.1.0.0.UPF
     MD5 check sum: 5f16ad9a65e90284d1d834d4ab3b0f7d
     Pseudo is Projector augmented-wave + core cor, Zval =  4.0
     Generated using "atomic" code by A. Dal Corso v.6.3
     Shape of augmentation charge: PSQ
     Using radial grid of 1073 points,  4 beta functions with: 
                l(1) =   0
                l(2) =   0
                l(3) =   1
                l(4) =   1
     Q(r) pseudized with 0 coefficients 


     atomic species   valence    mass     pseudopotential
        C              4.00    12.00000     C ( 1.00)

     48 Sym. Ops., with inversion, found (36 have fractional translation)



   Cartesian axes

     site n.     atom                  positions (alat units)
         1           C   tau(   1) = (  -0.1250000   0.1250000   0.1250000  )
         2           C   tau(   2) = (  -0.8750000   0.8750000   0.8750000  )

     number of k points=     8
                       cart. coord. in units 2pi/alat
        k(    1) = (   0.0000000   0.0000000   0.0000000), wk =   0.0312500
        k(    2) = (  -0.2500000   0.2500000  -0.2500000), wk =   0.2500000
        k(    3) = (   0.5000000  -0.5000000   0.5000000), wk =   0.1250000
        k(    4) = (   0.0000000   0.5000000   0.0000000), wk =   0.1875000
        k(    5) = (   0.7500000  -0.2500000   0.7500000), wk =   0.7500000
        k(    6) = (   0.5000000   0.0000000   0.5000000), wk =   0.3750000
        k(    7) = (   0.0000000  -1.0000000   0.0000000), wk =   0.0937500
        k(    8) = (  -0.5000000  -1.0000000   0.0000000), wk =   0.1875000

     Dense  grid:     5601 G-vectors     FFT dimensions: (  30,  30,  30)

     Estimated max dynamical RAM per process >       8.99 MB

     Check: negative core charge=   -0.000012

     Initial potential from superposition of free atoms

     starting charge    7.99992, renormalised to    8.00000
     Starting wfcs are    8 randomized atomic wfcs
     Checking if some PAW data can be deallocated... 

     total cpu time spent up to now is        0.5 secs

     Self-consistent Calculation

     iteration #  1     ecut=    90.00 Ry     beta= 0.20
     Davidson diagonalization with overlap
     ethr =  1.00E-04,  avg # of iterations =  3.9

     total cpu time spent up to now is        0.7 secs

     total energy              =     -36.62341034 Ry
     Harris-Foulkes estimate   =     -36.68842162 Ry
     estimated scf accuracy    <       0.28687173 Ry

     iteration #  2     ecut=    90.00 Ry     beta= 0.20
     Davidson diagonalization with overlap
     ethr =  3.59E-03,  avg # of iterations =  1.0

     total cpu time spent up to now is        0.9 secs

     total energy              =     -36.53518554 Ry
     Harris-Foulkes estimate   =     -36.62531797 Ry
     estimated scf accuracy    <       0.16135847 Ry

     iteration #  3     ecut=    90.00 Ry     beta= 0.20
     Davidson diagonalization with overlap
     ethr =  2.02E-03,  avg # of iterations =  2.0

     total cpu time spent up to now is        1.1 secs

     total energy              =     -36.55211288 Ry
     Harris-Foulkes estimate   =     -36.55212182 Ry
     estimated scf accuracy    <       0.00040291 Ry

     iteration #  4     ecut=    90.00 Ry     beta= 0.20
     Davidson diagonalization with overlap
     ethr =  5.04E-06,  avg # of iterations =  3.0

     total cpu time spent up to now is        1.4 secs

     total energy              =     -36.55265381 Ry
     Harris-Foulkes estimate   =     -36.55265209 Ry
     estimated scf accuracy    <       0.00014369 Ry

     iteration #  5     ecut=    90.00 Ry     beta= 0.20
     Davidson diagonalization with overlap
     ethr =  1.80E-06,  avg # of iterations =  1.5

     total cpu time spent up to now is        1.6 secs

     total energy              =     -36.55266658 Ry
     Harris-Foulkes estimate   =     -36.55266704 Ry
     estimated scf accuracy    <       0.00000753 Ry

     iteration #  6     ecut=    90.00 Ry     beta= 0.20
     Davidson diagonalization with overlap
     ethr =  9.41E-08,  avg # of iterations =  1.5

     total cpu time spent up to now is        1.8 secs

     total energy              =     -36.55266621 Ry
     Harris-Foulkes estimate   =     -36.55266716 Ry
     estimated scf accuracy    <       0.00000366 Ry

     iteration #  7     ecut=    90.00 Ry     beta= 0.20
     Davidson diagonalization with overlap
     ethr =  4.58E-08,  avg # of iterations =  1.4

     total cpu time spent up to now is        1.9 secs

     End of self-consistent calculation

          k = 0.0000 0.0000 0.0000 (   725 PWs)   bands (ev):

    -5.4140  23.1776  23.1776  23.1776

          k =-0.2500 0.2500-0.2500 (   703 PWs)   bands (ev):

    -3.1296  13.9611  20.4852  20.4852

          k = 0.5000-0.5000 0.5000 (   700 PWs)   bands (ev):

     3.5200   3.6377  18.9815  18.9815

          k = 0.0000 0.5000 0.0000 (   713 PWs)   bands (ev):

    -2.3662  16.7540  16.7540  17.9245

          k = 0.7500-0.2500 0.7500 (   703 PWs)   bands (ev):

     2.8423   8.3901  13.7289  15.6979

          k = 0.5000 0.0000 0.5000 (   708 PWs)   bands (ev):

     0.6199  11.6262  11.9978  18.5813

          k = 0.0000-1.0000 0.0000 (   692 PWs)   bands (ev):

     6.4570   6.4570  13.5689  13.5689

          k =-0.5000-1.0000 0.0000 (   700 PWs)   bands (ev):

     8.3217   8.3217  10.0611  10.0611

     highest occupied level (ev):    23.1776

!    total energy              =     -36.55266647 Ry
     Harris-Foulkes estimate   =     -36.55266647 Ry
     estimated scf accuracy    <          6.9E-09 Ry

     total all-electron energy =      -152.080861 Ry

     The total energy is the sum of the following terms:

     one-electron contribution =      14.23375095 Ry
     hartree contribution      =       1.53875147 Ry
     xc contribution           =     -10.24742547 Ry
     ewald contribution        =     -29.72026521 Ry
     one-center paw contrib.   =     -12.35747820 Ry

     convergence has been achieved in   7 iterations

     Writing output data file diamond.save/

     init_run     :      0.33s CPU      0.26s WALL (       1 calls)
     electrons    :      3.39s CPU      1.46s WALL (       1 calls)

     Called by init_run:
     wfcinit      :      0.17s CPU      0.10s WALL (       1 calls)
     potinit      :      0.05s CPU      0.05s WALL (       1 calls)
     hinit0       :      0.11s CPU      0.11s WALL (       1 calls)

     Called by electrons:
     c_bands      :      1.61s CPU      0.69s WALL (       7 calls)
     sum_band     :      0.35s CPU      0.16s WALL (       7 calls)
     v_of_rho     :      0.30s CPU      0.12s WALL (       8 calls)
     newd         :      0.02s CPU      0.02s WALL (       8 calls)
     PAW_pot      :      1.13s CPU      0.51s WALL (       8 calls)
     mix_rho      :      0.02s CPU      0.01s WALL (       7 calls)

     Called by c_bands:
     init_us_2    :      0.04s CPU      0.01s WALL (     120 calls)
     cegterg      :      1.54s CPU      0.66s WALL (      56 calls)

     Called by sum_band:
     sum_band:bec :      0.00s CPU      0.00s WALL (      56 calls)
     addusdens    :      0.03s CPU      0.02s WALL (       7 calls)

     Called by *egterg:
     h_psi        :      1.59s CPU      0.71s WALL (     178 calls)
     s_psi        :      0.02s CPU      0.01s WALL (     178 calls)
     g_psi        :      0.00s CPU      0.00s WALL (     114 calls)
     cdiaghg      :      0.02s CPU      0.01s WALL (     170 calls)

     Called by h_psi:
     h_psi:pot    :      1.59s CPU      0.71s WALL (     178 calls)
     h_psi:calbec :      0.29s CPU      0.20s WALL (     178 calls)
     vloc_psi     :      1.28s CPU      0.50s WALL (     178 calls)
     add_vuspsi   :      0.01s CPU      0.01s WALL (     178 calls)

     General routines
     calbec       :      0.32s CPU      0.23s WALL (     234 calls)
     fft          :      0.17s CPU      0.08s WALL (      88 calls)
     ffts         :      0.03s CPU      0.01s WALL (       7 calls)
     fftw         :      1.35s CPU      0.54s WALL (    1560 calls)

     Parallel routines

     PWSCF        :      3.94s CPU      1.93s WALL


   This run was terminated on:  20:21:34  12May2023            

=------------------------------------------------------------------------------=
   JOB DONE.
=------------------------------------------------------------------------------=
