
     Program PWSCF v.6.4.1 starts on 12May2023 at 20:22:48 

     This program is part of the open-source Quantum ESPRESSO suite
     for quantum simulation of materials; please cite
         "P. Giannozzi et al., J. Phys.:Condens. Matter 21 395502 (2009);
         "P. Giannozzi et al., J. Phys.:Condens. Matter 29 465901 (2017);
          URL http://www.quantum-espresso.org", 
     in publications or presentations arising from this work. More details at
     http://www.quantum-espresso.org/quote

     Parallel version (MPI), running on     1 processors

     MPI processes distributed on     1 nodes
     Waiting for input...
     Reading input from standard input

     Current dimensions of program PWSCF are:
     Max number of different atomic species (ntypx) = 10
     Max number of k-points (npk) =  40000
     Max angular momentum in pseudopotentials (lmaxx) =  3
               file C.pbe-n-kjpaw_psl.1.0.0.UPF: wavefunction(s)  2S 2P renormalized

     Subspace diagonalization in iterative solution of the eigenvalue problem:
     a serial algorithm will be used


     G-vector sticks info
     --------------------
     sticks:   dense  smooth     PW     G-vecs:    dense   smooth      PW
     Sum         793     793    241                14649    14649    2421



     bravais-lattice index     =            2
     lattice parameter (alat)  =       8.0000  a.u.
     unit-cell volume          =     128.0000 (a.u.)^3
     number of atoms/cell      =            2
     number of atomic types    =            1
     number of electrons       =         8.00
     number of Kohn-Sham states=            4
     kinetic-energy cutoff     =      90.0000  Ry
     charge density cutoff     =     360.0000  Ry
     convergence threshold     =      1.0E-08
     mixing beta               =       0.2000
     number of iterations used =            8  plain     mixing
     Exchange-correlation      = SLA PW PBX PBC ( 1  4  3  4 0 0)

     celldm(1)=   8.000000  celldm(2)=   0.000000  celldm(3)=   0.000000
     celldm(4)=   0.000000  celldm(5)=   0.000000  celldm(6)=   0.000000

     crystal axes: (cart. coord. in units of alat)
               a(1) = (  -0.500000   0.000000   0.500000 )  
               a(2) = (   0.000000   0.500000   0.500000 )  
               a(3) = (  -0.500000   0.500000   0.000000 )  

     reciprocal axes: (cart. coord. in units 2 pi/alat)
               b(1) = ( -1.000000 -1.000000  1.000000 )  
               b(2) = (  1.000000  1.000000  1.000000 )  
               b(3) = ( -1.000000  1.000000 -1.000000 )  


     PseudoPot. # 1 for C  read from file:
     ../../pseudo/C.pbe-n-kjpaw_psl.1.0.0.UPF
     MD5 check sum: 5f16ad9a65e90284d1d834d4ab3b0f7d
     Pseudo is Projector augmented-wave + core cor, Zval =  4.0
     Generated using "atomic" code by A. Dal Corso v.6.3
     Shape of augmentation charge: PSQ
     Using radial grid of 1073 points,  4 beta functions with: 
                l(1) =   0
                l(2) =   0
                l(3) =   1
                l(4) =   1
     Q(r) pseudized with 0 coefficients 


     atomic species   valence    mass     pseudopotential
        C              4.00    12.00000     C ( 1.00)

     48 Sym. Ops., with inversion, found (36 have fractional translation)



   Cartesian axes

     site n.     atom                  positions (alat units)
         1           C   tau(   1) = (  -0.1250000   0.1250000   0.1250000  )
         2           C   tau(   2) = (  -0.8750000   0.8750000   0.8750000  )

     number of k points=     8
                       cart. coord. in units 2pi/alat
        k(    1) = (   0.0000000   0.0000000   0.0000000), wk =   0.0312500
        k(    2) = (  -0.2500000   0.2500000  -0.2500000), wk =   0.2500000
        k(    3) = (   0.5000000  -0.5000000   0.5000000), wk =   0.1250000
        k(    4) = (   0.0000000   0.5000000   0.0000000), wk =   0.1875000
        k(    5) = (   0.7500000  -0.2500000   0.7500000), wk =   0.7500000
        k(    6) = (   0.5000000   0.0000000   0.5000000), wk =   0.3750000
        k(    7) = (   0.0000000  -1.0000000   0.0000000), wk =   0.0937500
        k(    8) = (  -0.5000000  -1.0000000   0.0000000), wk =   0.1875000

     Dense  grid:    14649 G-vectors     FFT dimensions: (  36,  36,  36)

     Estimated max dynamical RAM per process >      21.37 MB

     Check: negative core charge=   -0.000012

     Initial potential from superposition of free atoms

     starting charge    7.99992, renormalised to    8.00000
     Starting wfcs are    8 randomized atomic wfcs
     Checking if some PAW data can be deallocated... 

     total cpu time spent up to now is        0.5 secs

     Self-consistent Calculation

     iteration #  1     ecut=    90.00 Ry     beta= 0.20
     Davidson diagonalization with overlap
     ethr =  1.00E-04,  avg # of iterations =  3.8

     total cpu time spent up to now is        0.8 secs

     total energy              =     -36.64674723 Ry
     Harris-Foulkes estimate   =     -36.64860188 Ry
     estimated scf accuracy    <       0.03259825 Ry

     iteration #  2     ecut=    90.00 Ry     beta= 0.20
     Davidson diagonalization with overlap
     ethr =  4.07E-04,  avg # of iterations =  1.0

     total cpu time spent up to now is        1.0 secs

     total energy              =     -36.64440335 Ry
     Harris-Foulkes estimate   =     -36.64688226 Ry
     estimated scf accuracy    <       0.01970973 Ry

     iteration #  3     ecut=    90.00 Ry     beta= 0.20
     Davidson diagonalization with overlap
     ethr =  2.46E-04,  avg # of iterations =  1.0

     total cpu time spent up to now is        1.2 secs

     total energy              =     -36.64527208 Ry
     Harris-Foulkes estimate   =     -36.64528900 Ry
     estimated scf accuracy    <       0.00032144 Ry

     iteration #  4     ecut=    90.00 Ry     beta= 0.20
     Davidson diagonalization with overlap
     ethr =  4.02E-06,  avg # of iterations =  2.1

     total cpu time spent up to now is        1.5 secs

     total energy              =     -36.64530715 Ry
     Harris-Foulkes estimate   =     -36.64532523 Ry
     estimated scf accuracy    <       0.00003589 Ry

     iteration #  5     ecut=    90.00 Ry     beta= 0.20
     Davidson diagonalization with overlap
     ethr =  4.49E-07,  avg # of iterations =  2.4

     total cpu time spent up to now is        1.8 secs

     total energy              =     -36.64531490 Ry
     Harris-Foulkes estimate   =     -36.64531490 Ry
     estimated scf accuracy    <       0.00000026 Ry

     iteration #  6     ecut=    90.00 Ry     beta= 0.20
     Davidson diagonalization with overlap
     ethr =  3.28E-09,  avg # of iterations =  3.6

     total cpu time spent up to now is        2.1 secs

     total energy              =     -36.64531883 Ry
     Harris-Foulkes estimate   =     -36.64531515 Ry
     estimated scf accuracy    <       0.00000020 Ry

     iteration #  7     ecut=    90.00 Ry     beta= 0.20
     Davidson diagonalization with overlap
     ethr =  2.56E-09,  avg # of iterations =  3.2

     total cpu time spent up to now is        2.3 secs

     total energy              =     -36.64531489 Ry
     Harris-Foulkes estimate   =     -36.64532046 Ry
     estimated scf accuracy    <       0.00001287 Ry

     iteration #  8     ecut=    90.00 Ry     beta= 0.20
     Davidson diagonalization with overlap
     ethr =  2.56E-09,  avg # of iterations =  3.0

     total cpu time spent up to now is        2.6 secs

     total energy              =     -36.64531554 Ry
     Harris-Foulkes estimate   =     -36.64531563 Ry
     estimated scf accuracy    <       0.00000087 Ry

     iteration #  9     ecut=    90.00 Ry     beta= 0.20
     Davidson diagonalization with overlap
     ethr =  2.56E-09,  avg # of iterations =  1.0

     total cpu time spent up to now is        2.9 secs

     total energy              =     -36.64531529 Ry
     Harris-Foulkes estimate   =     -36.64531554 Ry
     estimated scf accuracy    <       0.00000065 Ry

     iteration # 10     ecut=    90.00 Ry     beta= 0.20
     Davidson diagonalization with overlap
     ethr =  2.56E-09,  avg # of iterations =  2.0

     total cpu time spent up to now is        3.1 secs

     total energy              =     -36.64531532 Ry
     Harris-Foulkes estimate   =     -36.64531532 Ry
     estimated scf accuracy    <       0.00000010 Ry

     iteration # 11     ecut=    90.00 Ry     beta= 0.20
     Davidson diagonalization with overlap
     ethr =  1.23E-09,  avg # of iterations =  1.0

     total cpu time spent up to now is        3.3 secs

     total energy              =     -36.64531531 Ry
     Harris-Foulkes estimate   =     -36.64531532 Ry
     estimated scf accuracy    <       0.00000010 Ry

     iteration # 12     ecut=    90.00 Ry     beta= 0.20
     Davidson diagonalization with overlap
     ethr =  1.21E-09,  avg # of iterations =  1.0

     total cpu time spent up to now is        3.5 secs

     total energy              =     -36.64531531 Ry
     Harris-Foulkes estimate   =     -36.64531531 Ry
     estimated scf accuracy    <       0.00000010 Ry

     iteration # 13     ecut=    90.00 Ry     beta= 0.20
     Davidson diagonalization with overlap
     ethr =  1.19E-09,  avg # of iterations =  1.0

     total cpu time spent up to now is        3.7 secs

     total energy              =     -36.64531526 Ry
     Harris-Foulkes estimate   =     -36.64531531 Ry
     estimated scf accuracy    <       0.00000009 Ry

     iteration # 14     ecut=    90.00 Ry     beta= 0.20
     Davidson diagonalization with overlap
     ethr =  1.09E-09,  avg # of iterations =  2.0

     total cpu time spent up to now is        3.9 secs

     End of self-consistent calculation

          k = 0.0000 0.0000 0.0000 (  1837 PWs)   bands (ev):

    -9.9532   5.7987   5.7987   5.7987

          k =-0.2500 0.2500-0.2500 (  1859 PWs)   bands (ev):

    -8.8053   0.9971   4.7683   4.7683

          k = 0.5000-0.5000 0.5000 (  1850 PWs)   bands (ev):

    -6.5591  -3.1637   4.0930   4.0930

          k = 0.0000 0.5000 0.0000 (  1828 PWs)   bands (ev):

    -8.4099   1.5078   3.4007   3.4007

          k = 0.7500-0.2500 0.7500 (  1845 PWs)   bands (ev):

    -6.0770  -2.2673   1.4636   2.9016

          k = 0.5000 0.0000 0.5000 (  1845 PWs)   bands (ev):

    -7.0297  -1.0573   1.2030   3.9974

          k = 0.0000-1.0000 0.0000 (  1804 PWs)   bands (ev):

    -4.1472  -4.1472   2.0346   2.0346

          k =-0.5000-1.0000 0.0000 (  1856 PWs)   bands (ev):

    -3.9041  -3.9041   1.0266   1.0266

     highest occupied level (ev):     5.7987

!    total energy              =     -36.64531527 Ry
     Harris-Foulkes estimate   =     -36.64531527 Ry
     estimated scf accuracy    <          5.3E-10 Ry

     total all-electron energy =      -152.173510 Ry

     The total energy is the sum of the following terms:

     one-electron contribution =       3.28536518 Ry
     hartree contribution      =       2.58144141 Ry
     xc contribution           =      -8.64150886 Ry
     ewald contribution        =     -21.54719218 Ry
     one-center paw contrib.   =     -12.32342082 Ry

     convergence has been achieved in  14 iterations

     Writing output data file diamond.save/

     init_run     :      0.37s CPU      0.29s WALL (       1 calls)
     electrons    :      7.83s CPU      3.50s WALL (       1 calls)

     Called by init_run:
     wfcinit      :      0.17s CPU      0.07s WALL (       1 calls)
     potinit      :      0.05s CPU      0.06s WALL (       1 calls)
     hinit0       :      0.14s CPU      0.14s WALL (       1 calls)

     Called by electrons:
     c_bands      :      3.78s CPU      1.74s WALL (      14 calls)
     sum_band     :      1.11s CPU      0.49s WALL (      14 calls)
     v_of_rho     :      0.69s CPU      0.27s WALL (      15 calls)
     newd         :      0.15s CPU      0.12s WALL (      15 calls)
     PAW_pot      :      2.00s CPU      0.88s WALL (      15 calls)
     mix_rho      :      0.13s CPU      0.05s WALL (      14 calls)

     Called by c_bands:
     init_us_2    :      0.16s CPU      0.07s WALL (     232 calls)
     cegterg      :      3.51s CPU      1.63s WALL (     112 calls)

     Called by sum_band:
     sum_band:bec :      0.00s CPU      0.00s WALL (     112 calls)
     addusdens    :      0.28s CPU      0.10s WALL (      14 calls)

     Called by *egterg:
     h_psi        :      3.37s CPU      1.56s WALL (     345 calls)
     s_psi        :      0.04s CPU      0.02s WALL (     345 calls)
     g_psi        :      0.02s CPU      0.01s WALL (     225 calls)
     cdiaghg      :      0.03s CPU      0.01s WALL (     337 calls)

     Called by h_psi:
     h_psi:pot    :      3.36s CPU      1.55s WALL (     345 calls)
     h_psi:calbec :      0.39s CPU      0.32s WALL (     345 calls)
     vloc_psi     :      2.92s CPU      1.21s WALL (     345 calls)
     add_vuspsi   :      0.04s CPU      0.02s WALL (     345 calls)

     General routines
     calbec       :      0.47s CPU      0.39s WALL (     457 calls)
     fft          :      0.31s CPU      0.13s WALL (     165 calls)
     ffts         :      0.02s CPU      0.01s WALL (      14 calls)
     fftw         :      3.05s CPU      1.27s WALL (    3068 calls)

     Parallel routines

     PWSCF        :      8.38s CPU      3.96s WALL


   This run was terminated on:  20:22:52  12May2023            

=------------------------------------------------------------------------------=
   JOB DONE.
=------------------------------------------------------------------------------=
