
     Program PWSCF v.6.4.1 starts on 12May2023 at 20:21:46 

     This program is part of the open-source Quantum ESPRESSO suite
     for quantum simulation of materials; please cite
         "P. Giannozzi et al., J. Phys.:Condens. Matter 21 395502 (2009);
         "P. Giannozzi et al., J. Phys.:Condens. Matter 29 465901 (2017);
          URL http://www.quantum-espresso.org", 
     in publications or presentations arising from this work. More details at
     http://www.quantum-espresso.org/quote

     Parallel version (MPI), running on     1 processors

     MPI processes distributed on     1 nodes
     Waiting for input...
     Reading input from standard input

     Current dimensions of program PWSCF are:
     Max number of different atomic species (ntypx) = 10
     Max number of k-points (npk) =  40000
     Max angular momentum in pseudopotentials (lmaxx) =  3
               file C.pbe-n-kjpaw_psl.1.0.0.UPF: wavefunction(s)  2S 2P renormalized

     Subspace diagonalization in iterative solution of the eigenvalue problem:
     a serial algorithm will be used


     G-vector sticks info
     --------------------
     sticks:   dense  smooth     PW     G-vecs:    dense   smooth      PW
     Sum         475     475    151                 6855     6855    1243



     bravais-lattice index     =            2
     lattice parameter (alat)  =       6.2000  a.u.
     unit-cell volume          =      59.5820 (a.u.)^3
     number of atoms/cell      =            2
     number of atomic types    =            1
     number of electrons       =         8.00
     number of Kohn-Sham states=            4
     kinetic-energy cutoff     =      90.0000  Ry
     charge density cutoff     =     360.0000  Ry
     convergence threshold     =      1.0E-08
     mixing beta               =       0.2000
     number of iterations used =            8  plain     mixing
     Exchange-correlation      = SLA PW PBX PBC ( 1  4  3  4 0 0)

     celldm(1)=   6.200000  celldm(2)=   0.000000  celldm(3)=   0.000000
     celldm(4)=   0.000000  celldm(5)=   0.000000  celldm(6)=   0.000000

     crystal axes: (cart. coord. in units of alat)
               a(1) = (  -0.500000   0.000000   0.500000 )  
               a(2) = (   0.000000   0.500000   0.500000 )  
               a(3) = (  -0.500000   0.500000   0.000000 )  

     reciprocal axes: (cart. coord. in units 2 pi/alat)
               b(1) = ( -1.000000 -1.000000  1.000000 )  
               b(2) = (  1.000000  1.000000  1.000000 )  
               b(3) = ( -1.000000  1.000000 -1.000000 )  


     PseudoPot. # 1 for C  read from file:
     ../../pseudo/C.pbe-n-kjpaw_psl.1.0.0.UPF
     MD5 check sum: 5f16ad9a65e90284d1d834d4ab3b0f7d
     Pseudo is Projector augmented-wave + core cor, Zval =  4.0
     Generated using "atomic" code by A. Dal Corso v.6.3
     Shape of augmentation charge: PSQ
     Using radial grid of 1073 points,  4 beta functions with: 
                l(1) =   0
                l(2) =   0
                l(3) =   1
                l(4) =   1
     Q(r) pseudized with 0 coefficients 


     atomic species   valence    mass     pseudopotential
        C              4.00    12.00000     C ( 1.00)

     48 Sym. Ops., with inversion, found (36 have fractional translation)



   Cartesian axes

     site n.     atom                  positions (alat units)
         1           C   tau(   1) = (  -0.1250000   0.1250000   0.1250000  )
         2           C   tau(   2) = (  -0.8750000   0.8750000   0.8750000  )

     number of k points=     8
                       cart. coord. in units 2pi/alat
        k(    1) = (   0.0000000   0.0000000   0.0000000), wk =   0.0312500
        k(    2) = (  -0.2500000   0.2500000  -0.2500000), wk =   0.2500000
        k(    3) = (   0.5000000  -0.5000000   0.5000000), wk =   0.1250000
        k(    4) = (   0.0000000   0.5000000   0.0000000), wk =   0.1875000
        k(    5) = (   0.7500000  -0.2500000   0.7500000), wk =   0.7500000
        k(    6) = (   0.5000000   0.0000000   0.5000000), wk =   0.3750000
        k(    7) = (   0.0000000  -1.0000000   0.0000000), wk =   0.0937500
        k(    8) = (  -0.5000000  -1.0000000   0.0000000), wk =   0.1875000

     Dense  grid:     6855 G-vectors     FFT dimensions: (  30,  30,  30)

     Estimated max dynamical RAM per process >      10.52 MB

     Check: negative core charge=   -0.000013

     Initial potential from superposition of free atoms

     starting charge    7.99992, renormalised to    8.00000
     Starting wfcs are    8 randomized atomic wfcs
     Checking if some PAW data can be deallocated... 

     total cpu time spent up to now is        0.4 secs

     Self-consistent Calculation

     iteration #  1     ecut=    90.00 Ry     beta= 0.20
     Davidson diagonalization with overlap
     ethr =  1.00E-04,  avg # of iterations =  3.9

     total cpu time spent up to now is        0.6 secs

     total energy              =     -36.81782801 Ry
     Harris-Foulkes estimate   =     -36.86150840 Ry
     estimated scf accuracy    <       0.20442932 Ry

     iteration #  2     ecut=    90.00 Ry     beta= 0.20
     Davidson diagonalization with overlap
     ethr =  2.56E-03,  avg # of iterations =  1.0

     total cpu time spent up to now is        0.8 secs

     total energy              =     -36.75898136 Ry
     Harris-Foulkes estimate   =     -36.81916461 Ry
     estimated scf accuracy    <       0.11495891 Ry

     iteration #  3     ecut=    90.00 Ry     beta= 0.20
     Davidson diagonalization with overlap
     ethr =  1.44E-03,  avg # of iterations =  1.9

     total cpu time spent up to now is        1.0 secs

     total energy              =     -36.77060782 Ry
     Harris-Foulkes estimate   =     -36.77061761 Ry
     estimated scf accuracy    <       0.00044985 Ry

     iteration #  4     ecut=    90.00 Ry     beta= 0.20
     Davidson diagonalization with overlap
     ethr =  5.62E-06,  avg # of iterations =  2.8

     total cpu time spent up to now is        1.4 secs

     total energy              =     -36.77101019 Ry
     Harris-Foulkes estimate   =     -36.77100833 Ry
     estimated scf accuracy    <       0.00010319 Ry

     iteration #  5     ecut=    90.00 Ry     beta= 0.20
     Davidson diagonalization with overlap
     ethr =  1.29E-06,  avg # of iterations =  1.5

     total cpu time spent up to now is        1.6 secs

     total energy              =     -36.77101971 Ry
     Harris-Foulkes estimate   =     -36.77101914 Ry
     estimated scf accuracy    <       0.00000403 Ry

     iteration #  6     ecut=    90.00 Ry     beta= 0.20
     Davidson diagonalization with overlap
     ethr =  5.04E-08,  avg # of iterations =  2.0

     total cpu time spent up to now is        1.8 secs

     total energy              =     -36.77101961 Ry
     Harris-Foulkes estimate   =     -36.77102019 Ry
     estimated scf accuracy    <       0.00000248 Ry

     iteration #  7     ecut=    90.00 Ry     beta= 0.20
     Davidson diagonalization with overlap
     ethr =  3.10E-08,  avg # of iterations =  2.0

     total cpu time spent up to now is        2.1 secs

     total energy              =     -36.77101985 Ry
     Harris-Foulkes estimate   =     -36.77101985 Ry
     estimated scf accuracy    <       0.00000004 Ry

     iteration #  8     ecut=    90.00 Ry     beta= 0.20
     Davidson diagonalization with overlap
     ethr =  4.42E-10,  avg # of iterations =  2.2

     total cpu time spent up to now is        2.3 secs

     total energy              =     -36.77101985 Ry
     Harris-Foulkes estimate   =     -36.77101986 Ry
     estimated scf accuracy    <       0.00000003 Ry

     iteration #  9     ecut=    90.00 Ry     beta= 0.20
     Davidson diagonalization with overlap
     ethr =  3.22E-10,  avg # of iterations =  1.0

     total cpu time spent up to now is        2.5 secs

     End of self-consistent calculation

          k = 0.0000 0.0000 0.0000 (   869 PWs)   bands (ev):

    -6.7737  18.4040  18.4040  18.4040

          k =-0.2500 0.2500-0.2500 (   860 PWs)   bands (ev):

    -4.7466  10.4655  16.1735  16.1735

          k = 0.5000-0.5000 0.5000 (   862 PWs)   bands (ev):

     0.6110   1.8876  14.8828  14.8828

          k = 0.0000 0.5000 0.0000 (   849 PWs)   bands (ev):

    -4.0751  13.1055  13.1055  13.5260

          k = 0.7500-0.2500 0.7500 (   855 PWs)   bands (ev):

     0.4720   5.5604  10.2360  12.1925

          k = 0.5000 0.0000 0.5000 (   867 PWs)   bands (ev):

    -1.4465   8.2639   8.9094  14.5790

          k = 0.0000-1.0000 0.0000 (   846 PWs)   bands (ev):

     3.6272   3.6272  10.4056  10.4056

          k =-0.5000-1.0000 0.0000 (   876 PWs)   bands (ev):

     4.9231   4.9231   7.6372   7.6372

     highest occupied level (ev):    18.4040

!    total energy              =     -36.77101985 Ry
     Harris-Foulkes estimate   =     -36.77101985 Ry
     estimated scf accuracy    <          3.5E-09 Ry

     total all-electron energy =      -152.299214 Ry

     The total energy is the sum of the following terms:

     one-electron contribution =      11.49629648 Ry
     hartree contribution      =       1.71342843 Ry
     xc contribution           =      -9.83908623 Ry
     ewald contribution        =     -27.80282862 Ry
     one-center paw contrib.   =     -12.33882991 Ry

     convergence has been achieved in   9 iterations

     Writing output data file diamond.save/

     init_run     :      0.36s CPU      0.24s WALL (       1 calls)
     electrons    :      4.68s CPU      2.05s WALL (       1 calls)

     Called by init_run:
     wfcinit      :      0.17s CPU      0.06s WALL (       1 calls)
     potinit      :      0.05s CPU      0.05s WALL (       1 calls)
     hinit0       :      0.12s CPU      0.12s WALL (       1 calls)

     Called by electrons:
     c_bands      :      2.27s CPU      1.00s WALL (       9 calls)
     sum_band     :      0.57s CPU      0.22s WALL (       9 calls)
     v_of_rho     :      0.41s CPU      0.17s WALL (      10 calls)
     newd         :      0.12s CPU      0.09s WALL (      10 calls)
     PAW_pot      :      1.32s CPU      0.61s WALL (      10 calls)
     mix_rho      :      0.05s CPU      0.02s WALL (       9 calls)

     Called by c_bands:
     init_us_2    :      0.06s CPU      0.02s WALL (     152 calls)
     cegterg      :      2.17s CPU      0.96s WALL (      72 calls)

     Called by sum_band:
     sum_band:bec :      0.00s CPU      0.00s WALL (      72 calls)
     addusdens    :      0.10s CPU      0.03s WALL (       9 calls)

     Called by *egterg:
     h_psi        :      2.16s CPU      0.93s WALL (     226 calls)
     s_psi        :      0.05s CPU      0.03s WALL (     226 calls)
     g_psi        :      0.01s CPU      0.00s WALL (     146 calls)
     cdiaghg      :      0.03s CPU      0.01s WALL (     218 calls)

     Called by h_psi:
     h_psi:pot    :      2.15s CPU      0.93s WALL (     226 calls)
     h_psi:calbec :      0.35s CPU      0.23s WALL (     226 calls)
     vloc_psi     :      1.78s CPU      0.68s WALL (     226 calls)
     add_vuspsi   :      0.02s CPU      0.01s WALL (     226 calls)

     General routines
     calbec       :      0.41s CPU      0.26s WALL (     298 calls)
     fft          :      0.30s CPU      0.12s WALL (     110 calls)
     ffts         :      0.03s CPU      0.01s WALL (       9 calls)
     fftw         :      1.91s CPU      0.74s WALL (    1936 calls)

     Parallel routines

     PWSCF        :      5.23s CPU      2.47s WALL


   This run was terminated on:  20:21:48  12May2023            

=------------------------------------------------------------------------------=
   JOB DONE.
=------------------------------------------------------------------------------=
