
     Program PWSCF v.6.4.1 starts on 12May2023 at 20:21:35 

     This program is part of the open-source Quantum ESPRESSO suite
     for quantum simulation of materials; please cite
         "P. Giannozzi et al., J. Phys.:Condens. Matter 21 395502 (2009);
         "P. Giannozzi et al., J. Phys.:Condens. Matter 29 465901 (2017);
          URL http://www.quantum-espresso.org", 
     in publications or presentations arising from this work. More details at
     http://www.quantum-espresso.org/quote

     Parallel version (MPI), running on     1 processors

     MPI processes distributed on     1 nodes
     Waiting for input...
     Reading input from standard input

     Current dimensions of program PWSCF are:
     Max number of different atomic species (ntypx) = 10
     Max number of k-points (npk) =  40000
     Max angular momentum in pseudopotentials (lmaxx) =  3
               file C.pbe-n-kjpaw_psl.1.0.0.UPF: wavefunction(s)  2S 2P renormalized

     Subspace diagonalization in iterative solution of the eigenvalue problem:
     a serial algorithm will be used


     G-vector sticks info
     --------------------
     sticks:   dense  smooth     PW     G-vecs:    dense   smooth      PW
     Sum         433     433    139                 5961     5961    1067



     bravais-lattice index     =            2
     lattice parameter (alat)  =       5.9000  a.u.
     unit-cell volume          =      51.3448 (a.u.)^3
     number of atoms/cell      =            2
     number of atomic types    =            1
     number of electrons       =         8.00
     number of Kohn-Sham states=            4
     kinetic-energy cutoff     =      90.0000  Ry
     charge density cutoff     =     360.0000  Ry
     convergence threshold     =      1.0E-08
     mixing beta               =       0.2000
     number of iterations used =            8  plain     mixing
     Exchange-correlation      = SLA PW PBX PBC ( 1  4  3  4 0 0)

     celldm(1)=   5.900000  celldm(2)=   0.000000  celldm(3)=   0.000000
     celldm(4)=   0.000000  celldm(5)=   0.000000  celldm(6)=   0.000000

     crystal axes: (cart. coord. in units of alat)
               a(1) = (  -0.500000   0.000000   0.500000 )  
               a(2) = (   0.000000   0.500000   0.500000 )  
               a(3) = (  -0.500000   0.500000   0.000000 )  

     reciprocal axes: (cart. coord. in units 2 pi/alat)
               b(1) = ( -1.000000 -1.000000  1.000000 )  
               b(2) = (  1.000000  1.000000  1.000000 )  
               b(3) = ( -1.000000  1.000000 -1.000000 )  


     PseudoPot. # 1 for C  read from file:
     ../../pseudo/C.pbe-n-kjpaw_psl.1.0.0.UPF
     MD5 check sum: 5f16ad9a65e90284d1d834d4ab3b0f7d
     Pseudo is Projector augmented-wave + core cor, Zval =  4.0
     Generated using "atomic" code by A. Dal Corso v.6.3
     Shape of augmentation charge: PSQ
     Using radial grid of 1073 points,  4 beta functions with: 
                l(1) =   0
                l(2) =   0
                l(3) =   1
                l(4) =   1
     Q(r) pseudized with 0 coefficients 


     atomic species   valence    mass     pseudopotential
        C              4.00    12.00000     C ( 1.00)

     48 Sym. Ops., with inversion, found (36 have fractional translation)



   Cartesian axes

     site n.     atom                  positions (alat units)
         1           C   tau(   1) = (  -0.1250000   0.1250000   0.1250000  )
         2           C   tau(   2) = (  -0.8750000   0.8750000   0.8750000  )

     number of k points=     8
                       cart. coord. in units 2pi/alat
        k(    1) = (   0.0000000   0.0000000   0.0000000), wk =   0.0312500
        k(    2) = (  -0.2500000   0.2500000  -0.2500000), wk =   0.2500000
        k(    3) = (   0.5000000  -0.5000000   0.5000000), wk =   0.1250000
        k(    4) = (   0.0000000   0.5000000   0.0000000), wk =   0.1875000
        k(    5) = (   0.7500000  -0.2500000   0.7500000), wk =   0.7500000
        k(    6) = (   0.5000000   0.0000000   0.5000000), wk =   0.3750000
        k(    7) = (   0.0000000  -1.0000000   0.0000000), wk =   0.0937500
        k(    8) = (  -0.5000000  -1.0000000   0.0000000), wk =   0.1875000

     Dense  grid:     5961 G-vectors     FFT dimensions: (  30,  30,  30)

     Estimated max dynamical RAM per process >       9.42 MB

     Check: negative core charge=   -0.000012

     Initial potential from superposition of free atoms

     starting charge    7.99992, renormalised to    8.00000
     Starting wfcs are    8 randomized atomic wfcs
     Checking if some PAW data can be deallocated... 

     total cpu time spent up to now is        0.5 secs

     Self-consistent Calculation

     iteration #  1     ecut=    90.00 Ry     beta= 0.20
     Davidson diagonalization with overlap
     ethr =  1.00E-04,  avg # of iterations =  3.9

     total cpu time spent up to now is        0.7 secs

     total energy              =     -36.68773905 Ry
     Harris-Foulkes estimate   =     -36.74688245 Ry
     estimated scf accuracy    <       0.26452197 Ry

     iteration #  2     ecut=    90.00 Ry     beta= 0.20
     Davidson diagonalization with overlap
     ethr =  3.31E-03,  avg # of iterations =  1.0

     total cpu time spent up to now is        0.9 secs

     total energy              =     -36.60757129 Ry
     Harris-Foulkes estimate   =     -36.68948691 Ry
     estimated scf accuracy    <       0.14878911 Ry

     iteration #  3     ecut=    90.00 Ry     beta= 0.20
     Davidson diagonalization with overlap
     ethr =  1.86E-03,  avg # of iterations =  2.0

     total cpu time spent up to now is        1.0 secs

     total energy              =     -36.62307999 Ry
     Harris-Foulkes estimate   =     -36.62308986 Ry
     estimated scf accuracy    <       0.00041529 Ry

     iteration #  4     ecut=    90.00 Ry     beta= 0.20
     Davidson diagonalization with overlap
     ethr =  5.19E-06,  avg # of iterations =  3.0

     total cpu time spent up to now is        1.3 secs

     total energy              =     -36.62357293 Ry
     Harris-Foulkes estimate   =     -36.62357408 Ry
     estimated scf accuracy    <       0.00014277 Ry

     iteration #  5     ecut=    90.00 Ry     beta= 0.20
     Davidson diagonalization with overlap
     ethr =  1.78E-06,  avg # of iterations =  1.5

     total cpu time spent up to now is        1.5 secs

     total energy              =     -36.62358562 Ry
     Harris-Foulkes estimate   =     -36.62358573 Ry
     estimated scf accuracy    <       0.00000636 Ry

     iteration #  6     ecut=    90.00 Ry     beta= 0.20
     Davidson diagonalization with overlap
     ethr =  7.95E-08,  avg # of iterations =  1.8

     total cpu time spent up to now is        1.7 secs

     total energy              =     -36.62358522 Ry
     Harris-Foulkes estimate   =     -36.62358624 Ry
     estimated scf accuracy    <       0.00000364 Ry

     iteration #  7     ecut=    90.00 Ry     beta= 0.20
     Davidson diagonalization with overlap
     ethr =  4.56E-08,  avg # of iterations =  1.5

     total cpu time spent up to now is        1.8 secs

     total energy              =     -36.62358553 Ry
     Harris-Foulkes estimate   =     -36.62358553 Ry
     estimated scf accuracy    <       0.00000003 Ry

     iteration #  8     ecut=    90.00 Ry     beta= 0.20
     Davidson diagonalization with overlap
     ethr =  3.17E-10,  avg # of iterations =  2.5

     total cpu time spent up to now is        2.2 secs

     total energy              =     -36.62358554 Ry
     Harris-Foulkes estimate   =     -36.62358554 Ry
     estimated scf accuracy    <       0.00000003 Ry

     iteration #  9     ecut=    90.00 Ry     beta= 0.20
     Davidson diagonalization with overlap
     ethr =  3.17E-10,  avg # of iterations =  1.0

     total cpu time spent up to now is        2.4 secs

     total energy              =     -36.62358553 Ry
     Harris-Foulkes estimate   =     -36.62358554 Ry
     estimated scf accuracy    <       0.00000001 Ry

     iteration # 10     ecut=    90.00 Ry     beta= 0.20
     Davidson diagonalization with overlap
     ethr =  1.57E-10,  avg # of iterations =  1.2

     total cpu time spent up to now is        2.6 secs

     End of self-consistent calculation

          k = 0.0000 0.0000 0.0000 (   725 PWs)   bands (ev):

    -5.7915  21.8833  21.8833  21.8833

          k =-0.2500 0.2500-0.2500 (   751 PWs)   bands (ev):

    -3.5732  13.0124  19.3165  19.3165

          k = 0.5000-0.5000 0.5000 (   754 PWs)   bands (ev):

     2.7204   3.1666  17.8698  17.8698

          k = 0.0000 0.5000 0.0000 (   729 PWs)   bands (ev):

    -2.8343  15.7660  15.7660  16.7334

          k = 0.7500-0.2500 0.7500 (   739 PWs)   bands (ev):

     2.2057   7.6189  12.7771  14.7482

          k = 0.5000 0.0000 0.5000 (   742 PWs)   bands (ev):

     0.0612  10.7177  11.1510  17.4965

          k = 0.0000-1.0000 0.0000 (   740 PWs)   bands (ev):

     5.6927   5.6927  12.7118  12.7118

          k =-0.5000-1.0000 0.0000 (   744 PWs)   bands (ev):

     7.3949   7.3949   9.4073   9.4073

     highest occupied level (ev):    21.8833

!    total energy              =     -36.62358553 Ry
     Harris-Foulkes estimate   =     -36.62358553 Ry
     estimated scf accuracy    <          1.2E-11 Ry

     total all-electron energy =      -152.151780 Ry

     The total energy is the sum of the following terms:

     one-electron contribution =      13.50186258 Ry
     hartree contribution      =       1.58213867 Ry
     xc contribution           =     -10.13890970 Ry
     ewald contribution        =     -29.21653184 Ry
     one-center paw contrib.   =     -12.35214524 Ry

     convergence has been achieved in  10 iterations

     Writing output data file diamond.save/

     init_run     :      0.37s CPU      0.28s WALL (       1 calls)
     electrons    :      4.68s CPU      2.09s WALL (       1 calls)

     Called by init_run:
     wfcinit      :      0.17s CPU      0.09s WALL (       1 calls)
     potinit      :      0.05s CPU      0.05s WALL (       1 calls)
     hinit0       :      0.12s CPU      0.12s WALL (       1 calls)

     Called by electrons:
     c_bands      :      2.20s CPU      0.99s WALL (      10 calls)
     sum_band     :      0.51s CPU      0.24s WALL (      10 calls)
     v_of_rho     :      0.33s CPU      0.15s WALL (      11 calls)
     newd         :      0.11s CPU      0.06s WALL (      11 calls)
     PAW_pot      :      1.53s CPU      0.68s WALL (      11 calls)
     mix_rho      :      0.04s CPU      0.02s WALL (      10 calls)

     Called by c_bands:
     init_us_2    :      0.05s CPU      0.02s WALL (     168 calls)
     cegterg      :      2.13s CPU      0.96s WALL (      80 calls)

     Called by sum_band:
     sum_band:bec :      0.00s CPU      0.00s WALL (      80 calls)
     addusdens    :      0.05s CPU      0.03s WALL (      10 calls)

     Called by *egterg:
     h_psi        :      2.16s CPU      0.98s WALL (     243 calls)
     s_psi        :      0.03s CPU      0.02s WALL (     243 calls)
     g_psi        :      0.01s CPU      0.00s WALL (     155 calls)
     cdiaghg      :      0.03s CPU      0.02s WALL (     235 calls)

     Called by h_psi:
     h_psi:pot    :      2.15s CPU      0.98s WALL (     243 calls)
     h_psi:calbec :      0.37s CPU      0.27s WALL (     243 calls)
     vloc_psi     :      1.76s CPU      0.69s WALL (     243 calls)
     add_vuspsi   :      0.02s CPU      0.01s WALL (     243 calls)

     General routines
     calbec       :      0.44s CPU      0.32s WALL (     323 calls)
     fft          :      0.24s CPU      0.10s WALL (     121 calls)
     ffts         :      0.02s CPU      0.01s WALL (      10 calls)
     fftw         :      1.90s CPU      0.75s WALL (    2124 calls)

     Parallel routines

     PWSCF        :      5.25s CPU      2.56s WALL


   This run was terminated on:  20:21:38  12May2023            

=------------------------------------------------------------------------------=
   JOB DONE.
=------------------------------------------------------------------------------=
