
     Program PWSCF v.6.4.1 starts on 12May2023 at 21:14: 7 

     This program is part of the open-source Quantum ESPRESSO suite
     for quantum simulation of materials; please cite
         "P. Giannozzi et al., J. Phys.:Condens. Matter 21 395502 (2009);
         "P. Giannozzi et al., J. Phys.:Condens. Matter 29 465901 (2017);
          URL http://www.quantum-espresso.org", 
     in publications or presentations arising from this work. More details at
     http://www.quantum-espresso.org/quote

     Parallel version (MPI), running on     1 processors

     MPI processes distributed on     1 nodes
     Waiting for input...
     Reading input from standard input

     Current dimensions of program PWSCF are:
     Max number of different atomic species (ntypx) = 10
     Max number of k-points (npk) =  40000
     Max angular momentum in pseudopotentials (lmaxx) =  3
               file C.pbe-n-kjpaw_psl.1.0.0.UPF: wavefunction(s)  2S 2P renormalized

     Subspace diagonalization in iterative solution of the eigenvalue problem:
     a serial algorithm will be used


     G-vector sticks info
     --------------------
     sticks:   dense  smooth     PW     G-vecs:    dense   smooth      PW
     Sum         439     439    139                 6231     6231    1067



     bravais-lattice index     =            2
     lattice parameter (alat)  =       6.0000  a.u.
     unit-cell volume          =      54.0000 (a.u.)^3
     number of atoms/cell      =            2
     number of atomic types    =            1
     number of electrons       =         8.00
     number of Kohn-Sham states=            4
     kinetic-energy cutoff     =      90.0000  Ry
     charge density cutoff     =     360.0000  Ry
     convergence threshold     =      1.0E-08
     mixing beta               =       0.2000
     number of iterations used =            8  plain     mixing
     Exchange-correlation      = SLA PW PBX PBC ( 1  4  3  4 0 0)
     nstep                     =           50


     celldm(1)=   6.000000  celldm(2)=   0.000000  celldm(3)=   0.000000
     celldm(4)=   0.000000  celldm(5)=   0.000000  celldm(6)=   0.000000

     crystal axes: (cart. coord. in units of alat)
               a(1) = (  -0.500000   0.000000   0.500000 )  
               a(2) = (   0.000000   0.500000   0.500000 )  
               a(3) = (  -0.500000   0.500000   0.000000 )  

     reciprocal axes: (cart. coord. in units 2 pi/alat)
               b(1) = ( -1.000000 -1.000000  1.000000 )  
               b(2) = (  1.000000  1.000000  1.000000 )  
               b(3) = ( -1.000000  1.000000 -1.000000 )  


     PseudoPot. # 1 for C  read from file:
     ../pseudo/C.pbe-n-kjpaw_psl.1.0.0.UPF
     MD5 check sum: 5f16ad9a65e90284d1d834d4ab3b0f7d
     Pseudo is Projector augmented-wave + core cor, Zval =  4.0
     Generated using "atomic" code by A. Dal Corso v.6.3
     Shape of augmentation charge: PSQ
     Using radial grid of 1073 points,  4 beta functions with: 
                l(1) =   0
                l(2) =   0
                l(3) =   1
                l(4) =   1
     Q(r) pseudized with 0 coefficients 


     atomic species   valence    mass     pseudopotential
        C              4.00    12.00000     C ( 1.00)

     48 Sym. Ops., with inversion, found (36 have fractional translation)



   Cartesian axes

     site n.     atom                  positions (alat units)
         1           C   tau(   1) = (  -0.1250000   0.1250000   0.1250000  )
         2           C   tau(   2) = (  -0.8750000   0.8750000   0.8750000  )

     number of k points=     8
                       cart. coord. in units 2pi/alat
        k(    1) = (   0.0000000   0.0000000   0.0000000), wk =   0.0312500
        k(    2) = (  -0.2500000   0.2500000  -0.2500000), wk =   0.2500000
        k(    3) = (   0.5000000  -0.5000000   0.5000000), wk =   0.1250000
        k(    4) = (   0.0000000   0.5000000   0.0000000), wk =   0.1875000
        k(    5) = (   0.7500000  -0.2500000   0.7500000), wk =   0.7500000
        k(    6) = (   0.5000000   0.0000000   0.5000000), wk =   0.3750000
        k(    7) = (   0.0000000  -1.0000000   0.0000000), wk =   0.0937500
        k(    8) = (  -0.5000000  -1.0000000   0.0000000), wk =   0.1875000

     Dense  grid:     6231 G-vectors     FFT dimensions: (  30,  30,  30)

     Estimated max dynamical RAM per process >      10.65 MB

     Check: negative core charge=   -0.000012

     Initial potential from superposition of free atoms

     starting charge    7.99992, renormalised to    8.00000
     Starting wfcs are    8 randomized atomic wfcs
     Checking if some PAW data can be deallocated... 

     total cpu time spent up to now is        0.7 secs

     Self-consistent Calculation

     iteration #  1     ecut=    90.00 Ry     beta= 0.20
     Davidson diagonalization with overlap
     ethr =  1.00E-04,  avg # of iterations =  3.9

     total cpu time spent up to now is        1.1 secs

     total energy              =     -36.74080906 Ry
     Harris-Foulkes estimate   =     -36.79445732 Ry
     estimated scf accuracy    <       0.24336553 Ry

     iteration #  2     ecut=    90.00 Ry     beta= 0.20
     Davidson diagonalization with overlap
     ethr =  3.04E-03,  avg # of iterations =  1.0

     total cpu time spent up to now is        1.3 secs

     total energy              =     -36.66823563 Ry
     Harris-Foulkes estimate   =     -36.74241437 Ry
     estimated scf accuracy    <       0.13685325 Ry

     iteration #  3     ecut=    90.00 Ry     beta= 0.20
     Davidson diagonalization with overlap
     ethr =  1.71E-03,  avg # of iterations =  1.9

     total cpu time spent up to now is        1.5 secs

     total energy              =     -36.68237671 Ry
     Harris-Foulkes estimate   =     -36.68238639 Ry
     estimated scf accuracy    <       0.00042569 Ry

     iteration #  4     ecut=    90.00 Ry     beta= 0.20
     Davidson diagonalization with overlap
     ethr =  5.32E-06,  avg # of iterations =  2.9

     total cpu time spent up to now is        1.7 secs

     total energy              =     -36.68283544 Ry
     Harris-Foulkes estimate   =     -36.68283508 Ry
     estimated scf accuracy    <       0.00013060 Ry

     iteration #  5     ecut=    90.00 Ry     beta= 0.20
     Davidson diagonalization with overlap
     ethr =  1.63E-06,  avg # of iterations =  1.5

     total cpu time spent up to now is        1.8 secs

     total energy              =     -36.68284696 Ry
     Harris-Foulkes estimate   =     -36.68284675 Ry
     estimated scf accuracy    <       0.00000531 Ry

     iteration #  6     ecut=    90.00 Ry     beta= 0.20
     Davidson diagonalization with overlap
     ethr =  6.64E-08,  avg # of iterations =  1.9

     total cpu time spent up to now is        2.1 secs

     total energy              =     -36.68284666 Ry
     Harris-Foulkes estimate   =     -36.68284753 Ry
     estimated scf accuracy    <       0.00000327 Ry

     iteration #  7     ecut=    90.00 Ry     beta= 0.20
     Davidson diagonalization with overlap
     ethr =  4.08E-08,  avg # of iterations =  2.0

     total cpu time spent up to now is        2.3 secs

     total energy              =     -36.68284694 Ry
     Harris-Foulkes estimate   =     -36.68284695 Ry
     estimated scf accuracy    <       0.00000003 Ry

     iteration #  8     ecut=    90.00 Ry     beta= 0.20
     Davidson diagonalization with overlap
     ethr =  4.00E-10,  avg # of iterations =  2.1

     total cpu time spent up to now is        2.4 secs

     total energy              =     -36.68284695 Ry
     Harris-Foulkes estimate   =     -36.68284695 Ry
     estimated scf accuracy    <       0.00000003 Ry

     iteration #  9     ecut=    90.00 Ry     beta= 0.20
     Davidson diagonalization with overlap
     ethr =  3.57E-10,  avg # of iterations =  1.0

     total cpu time spent up to now is        2.6 secs

     End of self-consistent calculation

          k = 0.0000 0.0000 0.0000 (   749 PWs)   bands (ev):

    -6.1425  20.6590  20.6590  20.6590

          k =-0.2500 0.2500-0.2500 (   784 PWs)   bands (ev):

    -3.9893  12.1159  18.2108  18.2108

          k = 0.5000-0.5000 0.5000 (   778 PWs)   bands (ev):

     1.9715   2.7188  16.8184  16.8184

          k = 0.0000 0.5000 0.0000 (   769 PWs)   bands (ev):

    -3.2738  14.8306  14.8306  15.6060

          k = 0.7500-0.2500 0.7500 (   777 PWs)   bands (ev):

     1.5993   6.8927  11.8798  13.8494

          k = 0.5000 0.0000 0.5000 (   784 PWs)   bands (ev):

    -0.4684   9.8565  10.3565  16.4701

          k = 0.0000-1.0000 0.0000 (   790 PWs)   bands (ev):

     4.9679   4.9679  11.9006  11.9006

          k =-0.5000-1.0000 0.0000 (   772 PWs)   bands (ev):

     6.5219   6.5219   8.7866   8.7866

     highest occupied level (ev):    20.6590

!    total energy              =     -36.68284694 Ry
     Harris-Foulkes estimate   =     -36.68284695 Ry
     estimated scf accuracy    <          6.9E-09 Ry

     total all-electron energy =      -152.211041 Ry

     The total energy is the sum of the following terms:

     one-electron contribution =      12.80313012 Ry
     hartree contribution      =       1.62571877 Ry
     xc contribution           =     -10.03483259 Ry
     ewald contribution        =     -28.72958961 Ry
     one-center paw contrib.   =     -12.34727364 Ry

     convergence has been achieved in   9 iterations

     Forces acting on atoms (cartesian axes, Ry/au):

     atom    1 type  1   force =    -0.00000000   -0.00000000    0.00000000
     atom    2 type  1   force =     0.00000000    0.00000000   -0.00000000

     Total force =     0.000000     Total SCF correction =     0.000000


     Computing stress (Cartesian axis) and pressure

          total   stress  (Ry/bohr**3)                   (kbar)     P= 2933.14
   0.01993911  -0.00000000  -0.00000000       2933.14     -0.00     -0.00
  -0.00000000   0.01993911   0.00000000         -0.00   2933.14      0.00
  -0.00000000   0.00000000   0.01993911         -0.00      0.00   2933.14


     BFGS Geometry Optimization

     number of scf cycles    =   1
     number of bfgs steps    =   0

     enthalpy new            =     -36.6828469449 Ry

     new trust radius        =       0.5000000000 bohr
ibrav =      2
 celldm(1) =      8.04124148
Input lattice vectors:
    -0.67010346     0.00000000     0.67010346
    -0.00000000     0.67010346     0.67010346
    -0.67010346     0.67010346     0.00000000
New lattice vectors in INITIAL alat:
    -0.67010346     0.00000000     0.67010346
     0.00000000     0.67010346     0.67010346
    -0.67010346     0.67010346     0.00000000
New lattice vectors in NEW alat (for information only):
    -0.50000000     0.00000000     0.50000000
     0.00000000     0.50000000     0.50000000
    -0.50000000     0.50000000     0.00000000
Discrepancy in bohr =     0.000000    0.000000    0.000000
     new conv_thr            =       0.0000000100 Ry

     new unit-cell volume =    129.98981 a.u.^3 (    19.26250 Ang^3 )
     density =      2.06894 g/cm^3

CELL_PARAMETERS (alat=  6.00000000)
  -0.670103456   0.000000000   0.670103456
   0.000000000   0.670103456   0.670103456
  -0.670103456   0.670103456   0.000000000

ATOMIC_POSITIONS (crystal)
C        0.125000000   0.125000000   0.125000000
C        0.875000000   0.875000000   0.875000000



     Writing output data file diamond.save/
     NEW-OLD atomic charge density approx. for the potential

     Check: negative core charge=   -0.000065
     extrapolated charge   12.67661, renormalised to    8.00000

     total cpu time spent up to now is        3.4 secs

     Self-consistent Calculation

     iteration #  1     ecut=    90.00 Ry     beta= 0.20
     Davidson diagonalization with overlap
     ethr =  1.00E-06,  avg # of iterations =  6.8

     total cpu time spent up to now is        3.7 secs

     total energy              =     -36.26282419 Ry
     Harris-Foulkes estimate   =     -38.90427425 Ry
     estimated scf accuracy    <       0.05799179 Ry

     iteration #  2     ecut=    90.00 Ry     beta= 0.20
     Davidson diagonalization with overlap
     ethr =  7.25E-04,  avg # of iterations =  3.1

     total cpu time spent up to now is        4.0 secs

     total energy              =     -36.67508102 Ry
     Harris-Foulkes estimate   =     -36.68741421 Ry
     estimated scf accuracy    <       0.10491742 Ry

     iteration #  3     ecut=    90.00 Ry     beta= 0.20
     Davidson diagonalization with overlap
     ethr =  7.25E-04,  avg # of iterations =  1.0

     total cpu time spent up to now is        4.2 secs

     total energy              =     -36.64139211 Ry
     Harris-Foulkes estimate   =     -36.67584254 Ry
     estimated scf accuracy    <       0.08102262 Ry

     iteration #  4     ecut=    90.00 Ry     beta= 0.20
     Davidson diagonalization with overlap
     ethr =  7.25E-04,  avg # of iterations =  1.0

     total cpu time spent up to now is        4.3 secs

     total energy              =     -36.63118571 Ry
     Harris-Foulkes estimate   =     -36.64415390 Ry
     estimated scf accuracy    <       0.01977756 Ry

     iteration #  5     ecut=    90.00 Ry     beta= 0.20
     Davidson diagonalization with overlap
     ethr =  2.47E-04,  avg # of iterations =  2.0

     total cpu time spent up to now is        4.6 secs

     total energy              =     -36.63400692 Ry
     Harris-Foulkes estimate   =     -36.63402853 Ry
     estimated scf accuracy    <       0.00007152 Ry

     iteration #  6     ecut=    90.00 Ry     beta= 0.20
     Davidson diagonalization with overlap
     ethr =  8.94E-07,  avg # of iterations =  2.4

     total cpu time spent up to now is        4.8 secs

     total energy              =     -36.63398050 Ry
     Harris-Foulkes estimate   =     -36.63406062 Ry
     estimated scf accuracy    <       0.00014071 Ry

     iteration #  7     ecut=    90.00 Ry     beta= 0.20
     Davidson diagonalization with overlap
     ethr =  8.94E-07,  avg # of iterations =  2.0

     total cpu time spent up to now is        5.0 secs

     total energy              =     -36.63399706 Ry
     Harris-Foulkes estimate   =     -36.63399681 Ry
     estimated scf accuracy    <       0.00000051 Ry

     iteration #  8     ecut=    90.00 Ry     beta= 0.20
     Davidson diagonalization with overlap
     ethr =  6.34E-09,  avg # of iterations =  2.6

     total cpu time spent up to now is        5.2 secs

     total energy              =     -36.63399672 Ry
     Harris-Foulkes estimate   =     -36.63399726 Ry
     estimated scf accuracy    <       0.00000146 Ry

     iteration #  9     ecut=    90.00 Ry     beta= 0.20
     Davidson diagonalization with overlap
     ethr =  6.34E-09,  avg # of iterations =  2.0

     total cpu time spent up to now is        5.5 secs

     total energy              =     -36.63399679 Ry
     Harris-Foulkes estimate   =     -36.63399681 Ry
     estimated scf accuracy    <       0.00000004 Ry

     iteration # 10     ecut=    90.00 Ry     beta= 0.20
     Davidson diagonalization with overlap
     ethr =  5.29E-10,  avg # of iterations =  1.1

     total cpu time spent up to now is        5.6 secs

     End of self-consistent calculation

          k = 0.0000 0.0000 0.0000 (   749 PWs)   bands (ev):

    -9.9943   5.6209   5.6209   5.6209

          k =-0.1865 0.1865-0.1865 (   784 PWs)   bands (ev):

    -8.8616   0.8503   4.6075   4.6075

          k = 0.3731-0.3731 0.3731 (   778 PWs)   bands (ev):

    -6.6566  -3.2468   3.9418   3.9418

          k = 0.0000 0.3731 0.0000 (   769 PWs)   bands (ev):

    -8.4707   1.3220   3.2637   3.2637

          k = 0.5596-0.1865 0.5596 (   777 PWs)   bands (ev):

    -6.1736  -2.3939   1.3494   2.7711

          k = 0.3731 0.0000 0.3731 (   784 PWs)   bands (ev):

    -7.1116  -1.2025   1.1000   3.8486

          k = 0.0000-0.7462 0.0000 (   790 PWs)   bands (ev):

    -4.2647  -4.2647   1.9177   1.9177

          k =-0.3731-0.7462 0.0000 (   772 PWs)   bands (ev):

    -4.0313  -4.0313   0.9321   0.9321

     highest occupied level (ev):     5.6209

!    total energy              =     -36.63399680 Ry
     Harris-Foulkes estimate   =     -36.63399680 Ry
     estimated scf accuracy    <          1.4E-09 Ry

     total all-electron energy =      -152.162191 Ry

     The total energy is the sum of the following terms:

     one-electron contribution =       3.14604056 Ry
     hartree contribution      =       2.60360964 Ry
     xc contribution           =      -8.62326086 Ry
     ewald contribution        =     -21.43668225 Ry
     one-center paw contrib.   =     -12.32370389 Ry

     convergence has been achieved in  10 iterations

     Forces acting on atoms (cartesian axes, Ry/au):

     atom    1 type  1   force =     0.00000000    0.00000000   -0.00000000
     atom    2 type  1   force =    -0.00000000   -0.00000000   -0.00000000

     Total force =     0.000000     Total SCF correction =     0.000000


     Computing stress (Cartesian axis) and pressure

          total   stress  (Ry/bohr**3)                   (kbar)     P= -800.05
  -0.00543865   0.00000000   0.00000000       -800.05      0.00      0.00
   0.00000000  -0.00543865  -0.00000000          0.00   -800.05     -0.00
   0.00000000  -0.00000000  -0.00543865          0.00     -0.00   -800.05


     number of scf cycles    =   2
     number of bfgs steps    =   1

     enthalpy old            =     -36.6828469449 Ry
     enthalpy new            =     -36.6339967990 Ry

     CASE: enthalpy_new > enthalpy_old

     new trust radius        =       0.2771003011 bohr
ibrav =      2
 celldm(1) =      6.97718198
Input lattice vectors:
    -0.58143183     0.00000000     0.58143183
     0.00000000     0.58143183     0.58143183
    -0.58143183     0.58143183     0.00000000
New lattice vectors in INITIAL alat:
    -0.58143183     0.00000000     0.58143183
     0.00000000     0.58143183     0.58143183
    -0.58143183     0.58143183     0.00000000
New lattice vectors in NEW alat (for information only):
    -0.50000000     0.00000000     0.50000000
     0.00000000     0.50000000     0.50000000
    -0.50000000     0.50000000     0.00000000
Discrepancy in bohr =     0.000000    0.000000    0.000000
     new conv_thr            =       0.0000000100 Ry

     new unit-cell volume =     84.91417 a.u.^3 (    12.58298 Ang^3 )
     density =      3.16721 g/cm^3

CELL_PARAMETERS (alat=  6.00000000)
  -0.581431832   0.000000000   0.581431832
   0.000000000   0.581431832   0.581431832
  -0.581431832   0.581431832   0.000000000

ATOMIC_POSITIONS (crystal)
C        0.125000000   0.125000000   0.125000000
C        0.875000000   0.875000000   0.875000000



     Writing output data file diamond.save/
     NEW-OLD atomic charge density approx. for the potential

     Check: negative core charge=   -0.000014

     negative rho (up, down):  4.745E-04 0.000E+00
     extrapolated charge    3.75334, renormalised to    8.00000

     total cpu time spent up to now is        6.3 secs

     Self-consistent Calculation

     iteration #  1     ecut=    90.00 Ry     beta= 0.20
     Davidson diagonalization with overlap
     ethr =  1.00E-06,  avg # of iterations =  6.4

     total cpu time spent up to now is        6.7 secs

     total energy              =     -36.79169266 Ry
     Harris-Foulkes estimate   =     -34.19653994 Ry
     estimated scf accuracy    <       0.77408488 Ry

     iteration #  2     ecut=    90.00 Ry     beta= 0.20
     Davidson diagonalization with overlap
     ethr =  9.68E-03,  avg # of iterations =  2.0

     total cpu time spent up to now is        6.9 secs

     total energy              =     -36.86318635 Ry
     Harris-Foulkes estimate   =     -36.93456249 Ry
     estimated scf accuracy    <       0.22684589 Ry

     iteration #  3     ecut=    90.00 Ry     beta= 0.20
     Davidson diagonalization with overlap
     ethr =  2.84E-03,  avg # of iterations =  1.0

     total cpu time spent up to now is        7.0 secs

     total energy              =     -36.84058067 Ry
     Harris-Foulkes estimate   =     -36.86873994 Ry
     estimated scf accuracy    <       0.05923658 Ry

     iteration #  4     ecut=    90.00 Ry     beta= 0.20
     Davidson diagonalization with overlap
     ethr =  7.40E-04,  avg # of iterations =  1.9

     total cpu time spent up to now is        7.2 secs

     total energy              =     -36.84926515 Ry
     Harris-Foulkes estimate   =     -36.84991111 Ry
     estimated scf accuracy    <       0.00389825 Ry

     iteration #  5     ecut=    90.00 Ry     beta= 0.20
     Davidson diagonalization with overlap
     ethr =  4.87E-05,  avg # of iterations =  1.4

     total cpu time spent up to now is        7.4 secs

     total energy              =     -36.84805753 Ry
     Harris-Foulkes estimate   =     -36.84943597 Ry
     estimated scf accuracy    <       0.00244226 Ry

     iteration #  6     ecut=    90.00 Ry     beta= 0.20
     Davidson diagonalization with overlap
     ethr =  3.05E-05,  avg # of iterations =  1.9

     total cpu time spent up to now is        7.6 secs

     total energy              =     -36.84835959 Ry
     Harris-Foulkes estimate   =     -36.84833998 Ry
     estimated scf accuracy    <       0.00000023 Ry

     iteration #  7     ecut=    90.00 Ry     beta= 0.20
     Davidson diagonalization with overlap
     ethr =  2.93E-09,  avg # of iterations =  4.1

     total cpu time spent up to now is        7.8 secs

     total energy              =     -36.84834473 Ry
     Harris-Foulkes estimate   =     -36.84837153 Ry
     estimated scf accuracy    <       0.00005228 Ry

     iteration #  8     ecut=    90.00 Ry     beta= 0.20
     Davidson diagonalization with overlap
     ethr =  2.93E-09,  avg # of iterations =  3.6

     total cpu time spent up to now is        8.1 secs

     total energy              =     -36.84834654 Ry
     Harris-Foulkes estimate   =     -36.84834815 Ry
     estimated scf accuracy    <       0.00000264 Ry

     iteration #  9     ecut=    90.00 Ry     beta= 0.20
     Davidson diagonalization with overlap
     ethr =  2.93E-09,  avg # of iterations =  2.9

     total cpu time spent up to now is        8.3 secs

     total energy              =     -36.84834689 Ry
     Harris-Foulkes estimate   =     -36.84834696 Ry
     estimated scf accuracy    <       0.00000011 Ry

     iteration # 10     ecut=    90.00 Ry     beta= 0.20
     Davidson diagonalization with overlap
     ethr =  1.35E-09,  avg # of iterations =  2.0

     total cpu time spent up to now is        8.5 secs

     End of self-consistent calculation

          k = 0.0000 0.0000 0.0000 (   749 PWs)   bands (ev):

    -8.5640  11.5828  11.5828  11.5828

          k =-0.2150 0.2150-0.2150 (   784 PWs)   bands (ev):

    -6.9720   5.4506  10.0048  10.0048

          k = 0.4300-0.4300 0.4300 (   778 PWs)   bands (ev):

    -3.3552  -0.7104   9.0354   9.0354

          k = 0.0000 0.4300 0.0000 (   769 PWs)   bands (ev):

    -6.4412   7.1702   7.8678   7.8678

          k = 0.6450-0.2150 0.6450 (   777 PWs)   bands (ev):

    -3.0173   1.4944   5.3680   7.1699

          k = 0.4300 0.0000 0.4300 (   784 PWs)   bands (ev):

    -4.4340   3.3611   4.6605   8.8537

          k = 0.0000-0.8599 0.0000 (   790 PWs)   bands (ev):

    -0.4933  -0.4933   5.8766   5.8766

          k =-0.4300-0.8599-0.0000 (   772 PWs)   bands (ev):

     0.1448   0.1448   4.1043   4.1043

     highest occupied level (ev):    11.5828

!    total energy              =     -36.84834690 Ry
     Harris-Foulkes estimate   =     -36.84834691 Ry
     estimated scf accuracy    <          4.8E-10 Ry

     total all-electron energy =      -152.376541 Ry

     The total energy is the sum of the following terms:

     one-electron contribution =       7.32419471 Ry
     hartree contribution      =       2.06655913 Ry
     xc contribution           =      -9.21294674 Ry
     ewald contribution        =     -24.70589672 Ry
     one-center paw contrib.   =     -12.32025729 Ry

     convergence has been achieved in  10 iterations

     Forces acting on atoms (cartesian axes, Ry/au):

     atom    1 type  1   force =     0.00000000    0.00000000    0.00000000
     atom    2 type  1   force =     0.00000000    0.00000000    0.00000000

     Total force =     0.000000     Total SCF correction =     0.000000


     Computing stress (Cartesian axis) and pressure

          total   stress  (Ry/bohr**3)                   (kbar)     P= -348.88
  -0.00237165   0.00000000   0.00000000       -348.88      0.00      0.00
   0.00000000  -0.00237165   0.00000000          0.00   -348.88      0.00
   0.00000000   0.00000000  -0.00237165          0.00      0.00   -348.88


     number of scf cycles    =   3
     number of bfgs steps    =   1

     enthalpy old            =     -36.6828469449 Ry
     enthalpy new            =     -36.8483469041 Ry

     CASE: enthalpy_new < enthalpy_old

     new trust radius        =       0.0357638874 bohr
ibrav =      2
 celldm(1) =      6.84178634
Input lattice vectors:
    -0.57014886     0.00000000     0.57014886
     0.00000000     0.57014886     0.57014886
    -0.57014886     0.57014886     0.00000000
New lattice vectors in INITIAL alat:
    -0.57014886     0.00000000     0.57014886
     0.00000000     0.57014886     0.57014886
    -0.57014886     0.57014886     0.00000000
New lattice vectors in NEW alat (for information only):
    -0.50000000     0.00000000     0.50000000
     0.00000000     0.50000000     0.50000000
    -0.50000000     0.50000000     0.00000000
Discrepancy in bohr =     0.000000    0.000000    0.000000
     new conv_thr            =            1.0E-10 Ry

     new unit-cell volume =     80.06607 a.u.^3 (    11.86457 Ang^3 )
     density =      3.35899 g/cm^3

CELL_PARAMETERS (alat=  6.00000000)
  -0.570148861   0.000000000   0.570148861
   0.000000000   0.570148861   0.570148861
  -0.570148861   0.570148861   0.000000000

ATOMIC_POSITIONS (crystal)
C        0.125000000   0.125000000   0.125000000
C        0.875000000   0.875000000   0.875000000



     Writing output data file diamond.save/
     NEW-OLD atomic charge density approx. for the potential

     Check: negative core charge=   -0.000009
     extrapolated charge    7.51560, renormalised to    8.00000

     total cpu time spent up to now is        9.2 secs

     Self-consistent Calculation

     iteration #  1     ecut=    90.00 Ry     beta= 0.20
     Davidson diagonalization with overlap
     ethr =  1.00E-06,  avg # of iterations =  3.9

     total cpu time spent up to now is        9.5 secs

     total energy              =     -36.85345245 Ry
     Harris-Foulkes estimate   =     -36.51666533 Ry
     estimated scf accuracy    <       0.00215159 Ry

     iteration #  2     ecut=    90.00 Ry     beta= 0.20
     Davidson diagonalization with overlap
     ethr =  2.69E-05,  avg # of iterations =  2.6

     total cpu time spent up to now is        9.7 secs

     total energy              =     -36.85676274 Ry
     Harris-Foulkes estimate   =     -36.85677556 Ry
     estimated scf accuracy    <       0.00009810 Ry

     iteration #  3     ecut=    90.00 Ry     beta= 0.20
     Davidson diagonalization with overlap
     ethr =  1.23E-06,  avg # of iterations =  2.0

     total cpu time spent up to now is        9.9 secs

     total energy              =     -36.85675347 Ry
     Harris-Foulkes estimate   =     -36.85677891 Ry
     estimated scf accuracy    <       0.00006328 Ry

     iteration #  4     ecut=    90.00 Ry     beta= 0.20
     Davidson diagonalization with overlap
     ethr =  7.91E-07,  avg # of iterations =  1.0

     total cpu time spent up to now is       10.1 secs

     total energy              =     -36.85675669 Ry
     Harris-Foulkes estimate   =     -36.85675661 Ry
     estimated scf accuracy    <       0.00000096 Ry

     iteration #  5     ecut=    90.00 Ry     beta= 0.20
     Davidson diagonalization with overlap
     ethr =  1.20E-08,  avg # of iterations =  2.1

     total cpu time spent up to now is       10.3 secs

     total energy              =     -36.85675678 Ry
     Harris-Foulkes estimate   =     -36.85675698 Ry
     estimated scf accuracy    <       0.00000103 Ry

     iteration #  6     ecut=    90.00 Ry     beta= 0.20
     Davidson diagonalization with overlap
     ethr =  1.20E-08,  avg # of iterations =  1.0

     total cpu time spent up to now is       10.4 secs

     total energy              =     -36.85675647 Ry
     Harris-Foulkes estimate   =     -36.85675679 Ry
     estimated scf accuracy    <       0.00000059 Ry

     iteration #  7     ecut=    90.00 Ry     beta= 0.20
     Davidson diagonalization with overlap
     ethr =  7.39E-09,  avg # of iterations =  2.0

     total cpu time spent up to now is       10.6 secs

     total energy              =     -36.85675656 Ry
     Harris-Foulkes estimate   =     -36.85675654 Ry
     estimated scf accuracy    <          6.1E-09 Ry

     iteration #  8     ecut=    90.00 Ry     beta= 0.20
     Davidson diagonalization with overlap
     ethr =  7.61E-11,  avg # of iterations =  2.5

     total cpu time spent up to now is       10.9 secs

     total energy              =     -36.85675654 Ry
     Harris-Foulkes estimate   =     -36.85675656 Ry
     estimated scf accuracy    <       0.00000003 Ry

     iteration #  9     ecut=    90.00 Ry     beta= 0.20
     Davidson diagonalization with overlap
     ethr =  7.61E-11,  avg # of iterations =  2.0

     total cpu time spent up to now is       11.1 secs

     End of self-consistent calculation

          k = 0.0000 0.0000 0.0000 (   749 PWs)   bands (ev):

    -8.3115  12.5857  12.5857  12.5857

          k =-0.2192 0.2192-0.2192 (   784 PWs)   bands (ev):

    -6.6502   6.1940  10.9123  10.9123

          k = 0.4385-0.4385 0.4385 (   778 PWs)   bands (ev):

    -2.7856  -0.3167   9.8942   9.8942

          k = 0.0000 0.4385 0.0000 (   769 PWs)   bands (ev):

    -6.0978   8.1156   8.6399   8.6399

          k = 0.6577-0.2192 0.6577 (   777 PWs)   bands (ev):

    -2.4969   2.1042   6.0704   7.9094

          k = 0.4385 0.0000 0.4385 (   784 PWs)   bands (ev):

    -3.9912   4.0942   5.2733   9.6958

          k = 0.0000-0.8770 0.0000 (   790 PWs)   bands (ev):

     0.1211   0.1211   6.5430   6.5430

          k =-0.4385-0.8770-0.0000 (   772 PWs)   bands (ev):

     0.8437   0.8437   4.6297   4.6297

     highest occupied level (ev):    12.5857

!    total energy              =     -36.85675654 Ry
     Harris-Foulkes estimate   =     -36.85675654 Ry
     estimated scf accuracy    <          1.7E-11 Ry

     total all-electron energy =      -152.384951 Ry

     The total energy is the sum of the following terms:

     one-electron contribution =       7.96527334 Ry
     hartree contribution      =       2.00322462 Ry
     xc contribution           =      -9.30840107 Ry
     ewald contribution        =     -25.19481447 Ry
     one-center paw contrib.   =     -12.32203896 Ry

     convergence has been achieved in   9 iterations

     Forces acting on atoms (cartesian axes, Ry/au):

     atom    1 type  1   force =    -0.00000000   -0.00000000    0.00000000
     atom    2 type  1   force =     0.00000000    0.00000000   -0.00000000

     Total force =     0.000000     Total SCF correction =     0.000000


     Computing stress (Cartesian axis) and pressure

          total   stress  (Ry/bohr**3)                   (kbar)     P= -151.68
  -0.00103112   0.00000000   0.00000000       -151.68      0.00      0.00
   0.00000000  -0.00103112  -0.00000000          0.00   -151.68     -0.00
   0.00000000  -0.00000000  -0.00103112          0.00     -0.00   -151.68


     number of scf cycles    =   4
     number of bfgs steps    =   2

     enthalpy old            =     -36.8483469041 Ry
     enthalpy new            =     -36.8567565427 Ry

     CASE: enthalpy_new < enthalpy_old

     new trust radius        =       0.0254417882 bohr
ibrav =      2
 celldm(1) =      6.74451993
Input lattice vectors:
    -0.56204333    -0.00000000     0.56204333
    -0.00000000     0.56204333     0.56204333
    -0.56204333     0.56204333    -0.00000000
New lattice vectors in INITIAL alat:
    -0.56204333     0.00000000     0.56204333
     0.00000000     0.56204333     0.56204333
    -0.56204333     0.56204333     0.00000000
New lattice vectors in NEW alat (for information only):
    -0.50000000     0.00000000     0.50000000
     0.00000000     0.50000000     0.50000000
    -0.50000000     0.50000000     0.00000000
Discrepancy in bohr =     0.000000    0.000000    0.000000
     new conv_thr            =            1.0E-10 Ry

     new unit-cell volume =     76.69961 a.u.^3 (    11.36571 Ang^3 )
     density =      3.50642 g/cm^3

CELL_PARAMETERS (alat=  6.00000000)
  -0.562043327   0.000000000   0.562043327
   0.000000000   0.562043327   0.562043327
  -0.562043327   0.562043327   0.000000000

ATOMIC_POSITIONS (crystal)
C        0.125000000   0.125000000   0.125000000
C        0.875000000   0.875000000   0.875000000



     Writing output data file diamond.save/
     NEW-OLD atomic charge density approx. for the potential

     Check: negative core charge=   -0.000007
     extrapolated charge    7.64887, renormalised to    8.00000

     total cpu time spent up to now is       11.9 secs

     Self-consistent Calculation

     iteration #  1     ecut=    90.00 Ry     beta= 0.20
     Davidson diagonalization with overlap
     ethr =  1.00E-06,  avg # of iterations =  3.8

     total cpu time spent up to now is       12.1 secs

     total energy              =     -36.85660126 Ry
     Harris-Foulkes estimate   =     -36.60357498 Ry
     estimated scf accuracy    <       0.00099358 Ry

     iteration #  2     ecut=    90.00 Ry     beta= 0.20
     Davidson diagonalization with overlap
     ethr =  1.24E-05,  avg # of iterations =  2.8

     total cpu time spent up to now is       12.3 secs

     total energy              =     -36.85829186 Ry
     Harris-Foulkes estimate   =     -36.85829969 Ry
     estimated scf accuracy    <       0.00005669 Ry

     iteration #  3     ecut=    90.00 Ry     beta= 0.20
     Davidson diagonalization with overlap
     ethr =  7.09E-07,  avg # of iterations =  1.6

     total cpu time spent up to now is       12.4 secs

     total energy              =     -36.85828315 Ry
     Harris-Foulkes estimate   =     -36.85829910 Ry
     estimated scf accuracy    <       0.00003659 Ry

     iteration #  4     ecut=    90.00 Ry     beta= 0.20
     Davidson diagonalization with overlap
     ethr =  4.57E-07,  avg # of iterations =  1.2

     total cpu time spent up to now is       12.7 secs

     total energy              =     -36.85828576 Ry
     Harris-Foulkes estimate   =     -36.85828568 Ry
     estimated scf accuracy    <       0.00000069 Ry

     iteration #  5     ecut=    90.00 Ry     beta= 0.20
     Davidson diagonalization with overlap
     ethr =  8.68E-09,  avg # of iterations =  2.1

     total cpu time spent up to now is       12.9 secs

     total energy              =     -36.85828586 Ry
     Harris-Foulkes estimate   =     -36.85828595 Ry
     estimated scf accuracy    <       0.00000085 Ry

     iteration #  6     ecut=    90.00 Ry     beta= 0.20
     Davidson diagonalization with overlap
     ethr =  8.68E-09,  avg # of iterations =  1.0

     total cpu time spent up to now is       13.0 secs

     total energy              =     -36.85828552 Ry
     Harris-Foulkes estimate   =     -36.85828587 Ry
     estimated scf accuracy    <       0.00000065 Ry

     iteration #  7     ecut=    90.00 Ry     beta= 0.20
     Davidson diagonalization with overlap
     ethr =  8.09E-09,  avg # of iterations =  1.5

     total cpu time spent up to now is       13.2 secs

     total energy              =     -36.85828559 Ry
     Harris-Foulkes estimate   =     -36.85828558 Ry
     estimated scf accuracy    <          5.2E-09 Ry

     iteration #  8     ecut=    90.00 Ry     beta= 0.20
     Davidson diagonalization with overlap
     ethr =  6.54E-11,  avg # of iterations =  2.9

     total cpu time spent up to now is       13.4 secs

     total energy              =     -36.85828558 Ry
     Harris-Foulkes estimate   =     -36.85828560 Ry
     estimated scf accuracy    <       0.00000003 Ry

     iteration #  9     ecut=    90.00 Ry     beta= 0.20
     Davidson diagonalization with overlap
     ethr =  6.54E-11,  avg # of iterations =  2.0

     total cpu time spent up to now is       13.6 secs

     total energy              =     -36.85828558 Ry
     Harris-Foulkes estimate   =     -36.85828558 Ry
     estimated scf accuracy    <          2.7E-09 Ry

     iteration # 10     ecut=    90.00 Ry     beta= 0.20
     Davidson diagonalization with overlap
     ethr =  3.32E-11,  avg # of iterations =  1.6

     total cpu time spent up to now is       13.8 secs

     End of self-consistent calculation

          k = 0.0000 0.0000 0.0000 (   749 PWs)   bands (ev):

    -8.1169  13.3493  13.3493  13.3493

          k =-0.2224 0.2224-0.2224 (   784 PWs)   bands (ev):

    -6.4041   6.7577  11.6031  11.6031

          k = 0.4448-0.4448 0.4448 (   778 PWs)   bands (ev):

    -2.3490  -0.0205  10.5483  10.5483

          k = 0.0000 0.4448 0.0000 (   769 PWs)   bands (ev):

    -5.8355   8.8317   9.2272   9.2272

          k = 0.6672-0.2224 0.6672 (   777 PWs)   bands (ev):

    -2.1024   2.5641   6.6088   8.4721

          k = 0.4448 0.0000 0.4448 (   784 PWs)   bands (ev):

    -3.6550   4.6486   5.7425  10.3369

          k = 0.0000-0.8896 0.0000 (   790 PWs)   bands (ev):

     0.5864   0.5864   7.0502   7.0502

          k =-0.4448-0.8896-0.0000 (   772 PWs)   bands (ev):

     1.3762   1.3762   5.0282   5.0282

     highest occupied level (ev):    13.3493

!    total energy              =     -36.85828558 Ry
     Harris-Foulkes estimate   =     -36.85828558 Ry
     estimated scf accuracy    <          1.5E-11 Ry

     total all-electron energy =      -152.386480 Ry

     The total energy is the sum of the following terms:

     one-electron contribution =       8.44555308 Ry
     hartree contribution      =       1.95826052 Ry
     xc contribution           =      -9.38026418 Ry
     ewald contribution        =     -25.55816267 Ry
     one-center paw contrib.   =     -12.32367234 Ry

     convergence has been achieved in  10 iterations

     Forces acting on atoms (cartesian axes, Ry/au):

     atom    1 type  1   force =     0.00000000   -0.00000000    0.00000000
     atom    2 type  1   force =     0.00000000    0.00000000   -0.00000000

     Total force =     0.000000     Total SCF correction =     0.000000


     Computing stress (Cartesian axis) and pressure

          total   stress  (Ry/bohr**3)                   (kbar)     P=   24.06
   0.00016358  -0.00000000   0.00000000         24.06     -0.00      0.00
  -0.00000000   0.00016358  -0.00000000         -0.00     24.06     -0.00
   0.00000000  -0.00000000   0.00016358          0.00     -0.00     24.06


     number of scf cycles    =   5
     number of bfgs steps    =   3

     enthalpy old            =     -36.8567565427 Ry
     enthalpy new            =     -36.8582855814 Ry

     CASE: enthalpy_new < enthalpy_old

     new trust radius        =       0.0033741482 bohr
ibrav =      2
 celldm(1) =      6.75751230
Input lattice vectors:
    -0.56312603    -0.00000000     0.56312603
     0.00000000     0.56312603     0.56312603
    -0.56312603     0.56312603    -0.00000000
New lattice vectors in INITIAL alat:
    -0.56312603     0.00000000     0.56312603
     0.00000000     0.56312603     0.56312603
    -0.56312603     0.56312603     0.00000000
New lattice vectors in NEW alat (for information only):
    -0.50000000     0.00000000     0.50000000
     0.00000000     0.50000000     0.50000000
    -0.50000000     0.50000000     0.00000000
Discrepancy in bohr =     0.000000    0.000000    0.000000
     new conv_thr            =            1.0E-10 Ry

     new unit-cell volume =     77.14371 a.u.^3 (    11.43152 Ang^3 )
     density =      3.48623 g/cm^3

CELL_PARAMETERS (alat=  6.00000000)
  -0.563126025   0.000000000   0.563126025
   0.000000000   0.563126025   0.563126025
  -0.563126025   0.563126025   0.000000000

ATOMIC_POSITIONS (crystal)
C        0.125000000   0.125000000   0.125000000
C        0.875000000   0.875000000   0.875000000



     Writing output data file diamond.save/
     NEW-OLD atomic charge density approx. for the potential

     Check: negative core charge=   -0.000007
     extrapolated charge    8.04605, renormalised to    8.00000

     total cpu time spent up to now is       14.5 secs

     Self-consistent Calculation

     iteration #  1     ecut=    90.00 Ry     beta= 0.20
     Davidson diagonalization with overlap
     ethr =  1.00E-06,  avg # of iterations =  2.0

     total cpu time spent up to now is       14.8 secs

     total energy              =     -36.85829109 Ry
     Harris-Foulkes estimate   =     -36.89167717 Ry
     estimated scf accuracy    <       0.00001469 Ry

     iteration #  2     ecut=    90.00 Ry     beta= 0.20
     Davidson diagonalization with overlap
     ethr =  1.84E-07,  avg # of iterations =  2.8

     total cpu time spent up to now is       15.0 secs

     total energy              =     -36.85832006 Ry
     Harris-Foulkes estimate   =     -36.85832024 Ry
     estimated scf accuracy    <       0.00000119 Ry

     iteration #  3     ecut=    90.00 Ry     beta= 0.20
     Davidson diagonalization with overlap
     ethr =  1.48E-08,  avg # of iterations =  1.4

     total cpu time spent up to now is       15.2 secs

     total energy              =     -36.85831980 Ry
     Harris-Foulkes estimate   =     -36.85832015 Ry
     estimated scf accuracy    <       0.00000078 Ry

     iteration #  4     ecut=    90.00 Ry     beta= 0.20
     Davidson diagonalization with overlap
     ethr =  9.70E-09,  avg # of iterations =  2.0

     total cpu time spent up to now is       15.4 secs

     total energy              =     -36.85831990 Ry
     Harris-Foulkes estimate   =     -36.85831990 Ry
     estimated scf accuracy    <       0.00000004 Ry

     iteration #  5     ecut=    90.00 Ry     beta= 0.20
     Davidson diagonalization with overlap
     ethr =  4.61E-10,  avg # of iterations =  1.4

     total cpu time spent up to now is       15.6 secs

     total energy              =     -36.85831992 Ry
     Harris-Foulkes estimate   =     -36.85831990 Ry
     estimated scf accuracy    <       0.00000003 Ry

     iteration #  6     ecut=    90.00 Ry     beta= 0.20
     Davidson diagonalization with overlap
     ethr =  3.80E-10,  avg # of iterations =  1.0

     total cpu time spent up to now is       15.8 secs

     total energy              =     -36.85831987 Ry
     Harris-Foulkes estimate   =     -36.85831992 Ry
     estimated scf accuracy    <       0.00000007 Ry

     iteration #  7     ecut=    90.00 Ry     beta= 0.20
     Davidson diagonalization with overlap
     ethr =  3.80E-10,  avg # of iterations =  2.0

     total cpu time spent up to now is       16.1 secs

     total energy              =     -36.85831988 Ry
     Harris-Foulkes estimate   =     -36.85831988 Ry
     estimated scf accuracy    <          4.8E-10 Ry

     iteration #  8     ecut=    90.00 Ry     beta= 0.20
     Davidson diagonalization with overlap
     ethr =  5.96E-12,  avg # of iterations =  2.0

     total cpu time spent up to now is       16.3 secs

     total energy              =     -36.85831988 Ry
     Harris-Foulkes estimate   =     -36.85831988 Ry
     estimated scf accuracy    <          5.7E-10 Ry

     iteration #  9     ecut=    90.00 Ry     beta= 0.20
     Davidson diagonalization with overlap
     ethr =  5.96E-12,  avg # of iterations =  1.0

     total cpu time spent up to now is       16.4 secs

     total energy              =     -36.85831988 Ry
     Harris-Foulkes estimate   =     -36.85831988 Ry
     estimated scf accuracy    <          4.2E-10 Ry

     iteration # 10     ecut=    90.00 Ry     beta= 0.20
     Davidson diagonalization with overlap
     ethr =  5.25E-12,  avg # of iterations =  2.0

     total cpu time spent up to now is       16.6 secs

     End of self-consistent calculation

          k = 0.0000 0.0000 0.0000 (   749 PWs)   bands (ev):

    -8.1436  13.2451  13.2451  13.2451

          k =-0.2220 0.2220-0.2220 (   784 PWs)   bands (ev):

    -6.4377   6.6809  11.5089  11.5089

          k = 0.4440-0.4440 0.4440 (   778 PWs)   bands (ev):

    -2.4087  -0.0607  10.4591  10.4591

          k = 0.0000 0.4440 0.0000 (   769 PWs)   bands (ev):

    -5.8713   8.7342   9.1472   9.1472

          k = 0.6659-0.2220 0.6659 (   777 PWs)   bands (ev):

    -2.1561   2.5015   6.5352   8.3954

          k = 0.4440 0.0000 0.4440 (   784 PWs)   bands (ev):

    -3.7008   4.5732   5.6784  10.2495

          k = 0.0000-0.8879 0.0000 (   790 PWs)   bands (ev):

     0.5231   0.5231   6.9811   6.9811

          k =-0.4440-0.8879-0.0000 (   772 PWs)   bands (ev):

     1.3035   1.3035   4.9739   4.9739

     highest occupied level (ev):    13.2451

!    total energy              =     -36.85831988 Ry
     Harris-Foulkes estimate   =     -36.85831988 Ry
     estimated scf accuracy    <          1.8E-11 Ry

     total all-electron energy =      -152.386514 Ry

     The total energy is the sum of the following terms:

     one-electron contribution =       8.38039910 Ry
     hartree contribution      =       1.96424220 Ry
     xc contribution           =      -9.37050145 Ry
     ewald contribution        =     -25.50902309 Ry
     one-center paw contrib.   =     -12.32343665 Ry

     convergence has been achieved in  10 iterations

     Forces acting on atoms (cartesian axes, Ry/au):

     atom    1 type  1   force =     0.00000000   -0.00000000    0.00000000
     atom    2 type  1   force =    -0.00000000    0.00000000   -0.00000000

     Total force =     0.000000     Total SCF correction =     0.000000


     Computing stress (Cartesian axis) and pressure

          total   stress  (Ry/bohr**3)                   (kbar)     P=   -1.23
  -0.00000839   0.00000000   0.00000000         -1.23      0.00      0.00
  -0.00000000  -0.00000839   0.00000000         -0.00     -1.23      0.00
   0.00000000  -0.00000000  -0.00000839          0.00     -0.00     -1.23


     number of scf cycles    =   6
     number of bfgs steps    =   4

     enthalpy old            =     -36.8582855814 Ry
     enthalpy new            =     -36.8583198808 Ry

     CASE: enthalpy_new < enthalpy_old

     new trust radius        =       0.0001654300 bohr
ibrav =      2
 celldm(1) =      6.75687592
Input lattice vectors:
    -0.56307299     0.00000000     0.56307299
     0.00000000     0.56307299     0.56307299
    -0.56307299     0.56307299    -0.00000000
New lattice vectors in INITIAL alat:
    -0.56307299     0.00000000     0.56307299
     0.00000000     0.56307299     0.56307299
    -0.56307299     0.56307299     0.00000000
New lattice vectors in NEW alat (for information only):
    -0.50000000     0.00000000     0.50000000
     0.00000000     0.50000000     0.50000000
    -0.50000000     0.50000000     0.00000000
Discrepancy in bohr =     0.000000    0.000000    0.000000
     new conv_thr            =            1.0E-10 Ry

     new unit-cell volume =     77.12192 a.u.^3 (    11.42829 Ang^3 )
     density =      3.48722 g/cm^3

CELL_PARAMETERS (alat=  6.00000000)
  -0.563072993   0.000000000   0.563072993
   0.000000000   0.563072993   0.563072993
  -0.563072993   0.563072993   0.000000000

ATOMIC_POSITIONS (crystal)
C        0.125000000   0.125000000   0.125000000
C        0.875000000   0.875000000   0.875000000



     Writing output data file diamond.save/
     NEW-OLD atomic charge density approx. for the potential

     Check: negative core charge=   -0.000007
     extrapolated charge    7.99774, renormalised to    8.00000

     total cpu time spent up to now is       17.3 secs

     Self-consistent Calculation

     iteration #  1     ecut=    90.00 Ry     beta= 0.20
     Davidson diagonalization with overlap
     ethr =  1.00E-06,  avg # of iterations =  2.0

     Threshold (ethr) on eigenvalues was too large:
     Diagonalizing with lowered threshold

     Davidson diagonalization with overlap
     ethr =  4.65E-10,  avg # of iterations =  1.1

     total cpu time spent up to now is       17.6 secs

     total energy              =     -36.85831991 Ry
     Harris-Foulkes estimate   =     -36.85668285 Ry
     estimated scf accuracy    <       0.00000004 Ry

     iteration #  2     ecut=    90.00 Ry     beta= 0.20
     Davidson diagonalization with overlap
     ethr =  4.64E-10,  avg # of iterations =  2.8

     total cpu time spent up to now is       17.9 secs

     total energy              =     -36.85831998 Ry
     Harris-Foulkes estimate   =     -36.85831998 Ry
     estimated scf accuracy    <          2.7E-09 Ry

     iteration #  3     ecut=    90.00 Ry     beta= 0.20
     Davidson diagonalization with overlap
     ethr =  3.41E-11,  avg # of iterations =  1.6

     total cpu time spent up to now is       18.1 secs

     total energy              =     -36.85831997 Ry
     Harris-Foulkes estimate   =     -36.85831998 Ry
     estimated scf accuracy    <          1.8E-09 Ry

     iteration #  4     ecut=    90.00 Ry     beta= 0.20
     Davidson diagonalization with overlap
     ethr =  2.21E-11,  avg # of iterations =  1.9

     total cpu time spent up to now is       18.2 secs

     End of self-consistent calculation

          k = 0.0000 0.0000 0.0000 (   749 PWs)   bands (ev):

    -8.1423  13.2502  13.2502  13.2502

          k =-0.2220 0.2220-0.2220 (   784 PWs)   bands (ev):

    -6.4361   6.6846  11.5135  11.5135

          k = 0.4440-0.4440 0.4440 (   778 PWs)   bands (ev):

    -2.4058  -0.0588  10.4634  10.4634

          k = 0.0000 0.4440 0.0000 (   769 PWs)   bands (ev):

    -5.8696   8.7389   9.1510   9.1510

          k = 0.6660-0.2220 0.6660 (   777 PWs)   bands (ev):

    -2.1535   2.5046   6.5388   8.3991

          k = 0.4440 0.0000 0.4440 (   784 PWs)   bands (ev):

    -3.6986   4.5768   5.6815  10.2537

          k = 0.0000-0.8880 0.0000 (   790 PWs)   bands (ev):

     0.5261   0.5261   6.9844   6.9844

          k =-0.4440-0.8880-0.0000 (   772 PWs)   bands (ev):

     1.3070   1.3070   4.9765   4.9765

     highest occupied level (ev):    13.2502

!    total energy              =     -36.85831997 Ry
     Harris-Foulkes estimate   =     -36.85831997 Ry
     estimated scf accuracy    <          4.9E-11 Ry

     total all-electron energy =      -152.386514 Ry

     The total energy is the sum of the following terms:

     one-electron contribution =       8.38357996 Ry
     hartree contribution      =       1.96395521 Ry
     xc contribution           =      -9.37098111 Ry
     ewald contribution        =     -25.51142562 Ry
     one-center paw contrib.   =     -12.32344841 Ry

     convergence has been achieved in   4 iterations

     Forces acting on atoms (cartesian axes, Ry/au):

     atom    1 type  1   force =     0.00000000    0.00000000   -0.00000000
     atom    2 type  1   force =    -0.00000000    0.00000000    0.00000000

     Total force =     0.000000     Total SCF correction =     0.000000


     Computing stress (Cartesian axis) and pressure

          total   stress  (Ry/bohr**3)                   (kbar)     P=    0.00
   0.00000003  -0.00000000  -0.00000000          0.00     -0.00     -0.00
  -0.00000000   0.00000003   0.00000000         -0.00      0.00      0.00
  -0.00000000   0.00000000   0.00000003         -0.00      0.00      0.00

ibrav =      2
 celldm(1) =      6.75687592
Input lattice vectors:
    -0.56307299     0.00000000     0.56307299
     0.00000000     0.56307299     0.56307299
    -0.56307299     0.56307299     0.00000000
New lattice vectors in INITIAL alat:
    -0.56307299     0.00000000     0.56307299
     0.00000000     0.56307299     0.56307299
    -0.56307299     0.56307299     0.00000000
New lattice vectors in NEW alat (for information only):
    -0.50000000     0.00000000     0.50000000
     0.00000000     0.50000000     0.50000000
    -0.50000000     0.50000000     0.00000000
Discrepancy in bohr =     0.000000    0.000000    0.000000

     bfgs converged in   7 scf cycles and   5 bfgs steps
     (criteria: energy <  1.0E-05 Ry, force <  1.0E-04Ry/Bohr, cell <  5.0E-01kbar)

     End of BFGS Geometry Optimization

     Final enthalpy =     -36.8583199728 Ry
Begin final coordinates
     new unit-cell volume =     77.12192 a.u.^3 (    11.42829 Ang^3 )
     density =      3.48722 g/cm^3

CELL_PARAMETERS (alat=  6.00000000)
  -0.563072993   0.000000000   0.563072993
   0.000000000   0.563072993   0.563072993
  -0.563072993   0.563072993   0.000000000

ATOMIC_POSITIONS (crystal)
C        0.125000000   0.125000000   0.125000000
C        0.875000000   0.875000000   0.875000000
End final coordinates



     Writing output data file diamond.save/

     A final scf calculation at the relaxed structure.
     The G-vectors are recalculated for the final unit cell
     Results may differ from those at the preceding step.

     G-vector sticks info
     --------------------
     sticks:   dense  smooth     PW     G-vecs:    dense   smooth      PW
     Sum         571     571    169                 8873     8873    1471



     bravais-lattice index     =            2
     lattice parameter (alat)  =       6.0000  a.u.
     unit-cell volume          =      77.1219 (a.u.)^3
     number of atoms/cell      =            2
     number of atomic types    =            1
     number of electrons       =         8.00
     number of Kohn-Sham states=            4
     kinetic-energy cutoff     =      90.0000  Ry
     charge density cutoff     =     360.0000  Ry
     convergence threshold     =      1.0E-10
     mixing beta               =       0.2000
     number of iterations used =            8  plain     mixing
     Exchange-correlation      = SLA PW PBX PBC ( 1  4  3  4 0 0)

     celldm(1)=   6.000000  celldm(2)=   0.000000  celldm(3)=   0.000000
     celldm(4)=   0.000000  celldm(5)=   0.000000  celldm(6)=   0.000000

     crystal axes: (cart. coord. in units of alat)
               a(1) = (  -0.563073   0.000000   0.563073 )  
               a(2) = (   0.000000   0.563073   0.563073 )  
               a(3) = (  -0.563073   0.563073   0.000000 )  

     reciprocal axes: (cart. coord. in units 2 pi/alat)
               b(1) = ( -0.887984 -0.887984  0.887984 )  
               b(2) = (  0.887984  0.887984  0.887984 )  
               b(3) = ( -0.887984  0.887984 -0.887984 )  


     PseudoPot. # 1 for C  read from file:
     ../pseudo/C.pbe-n-kjpaw_psl.1.0.0.UPF
     MD5 check sum: 5f16ad9a65e90284d1d834d4ab3b0f7d
     Pseudo is Projector augmented-wave + core cor, Zval =  4.0
     Generated using "atomic" code by A. Dal Corso v.6.3
     Shape of augmentation charge: PSQ
     Using radial grid of 1073 points,  4 beta functions with: 
                l(1) =   0
                l(2) =   0
                l(3) =   1
                l(4) =   1
     Q(r) pseudized with 0 coefficients 


     atomic species   valence    mass     pseudopotential
        C              4.00    12.00000     C ( 1.00)

     48 Sym. Ops., with inversion, found (36 have fractional translation)



   Cartesian axes

     site n.     atom                  positions (alat units)
         1           C   tau(   1) = (  -0.1407682   0.1407682   0.1407682  )
         2           C   tau(   2) = (  -0.9853777   0.9853777   0.9853777  )

     number of k points=     8
                       cart. coord. in units 2pi/alat
        k(    1) = (   0.0000000   0.0000000   0.0000000), wk =   0.0312500
        k(    2) = (  -0.2219961   0.2219961  -0.2219961), wk =   0.2500000
        k(    3) = (   0.4439922  -0.4439922   0.4439922), wk =   0.1250000
        k(    4) = (   0.0000000   0.4439922   0.0000000), wk =   0.1875000
        k(    5) = (   0.6659883  -0.2219961   0.6659883), wk =   0.7500000
        k(    6) = (   0.4439922   0.0000000   0.4439922), wk =   0.3750000
        k(    7) = (   0.0000000  -0.8879843   0.0000000), wk =   0.0937500
        k(    8) = (  -0.4439922  -0.8879843  -0.0000000), wk =   0.1875000

     Dense  grid:     8873 G-vectors     FFT dimensions: (  30,  30,  30)

     Estimated max dynamical RAM per process >      14.07 MB

     Check: negative core charge=   -0.000013

     Initial potential from superposition of free atoms

     starting charge    7.99992, renormalised to    8.00000
     Starting wfcs are    8 randomized atomic wfcs
     Checking if some PAW data can be deallocated... 

     total cpu time spent up to now is       19.0 secs

     Self-consistent Calculation

     iteration #  1     ecut=    90.00 Ry     beta= 0.20
     Davidson diagonalization with overlap
     ethr =  1.00E-06,  avg # of iterations =  6.2

     total cpu time spent up to now is       19.3 secs

     total energy              =     -36.88205847 Ry
     Harris-Foulkes estimate   =     -36.90469616 Ry
     estimated scf accuracy    <       0.11991406 Ry

     iteration #  2     ecut=    90.00 Ry     beta= 0.20
     Davidson diagonalization with overlap
     ethr =  1.50E-03,  avg # of iterations =  1.0

     total cpu time spent up to now is       19.5 secs

     total energy              =     -36.85191716 Ry
     Harris-Foulkes estimate   =     -36.88278636 Ry
     estimated scf accuracy    <       0.06781449 Ry

     iteration #  3     ecut=    90.00 Ry     beta= 0.20
     Davidson diagonalization with overlap
     ethr =  8.48E-04,  avg # of iterations =  1.6

     total cpu time spent up to now is       19.7 secs

     total energy              =     -36.85819576 Ry
     Harris-Foulkes estimate   =     -36.85821844 Ry
     estimated scf accuracy    <       0.00052604 Ry

     iteration #  4     ecut=    90.00 Ry     beta= 0.20
     Davidson diagonalization with overlap
     ethr =  6.58E-06,  avg # of iterations =  2.4

     total cpu time spent up to now is       20.0 secs

     total energy              =     -36.85846781 Ry
     Harris-Foulkes estimate   =     -36.85846307 Ry
     estimated scf accuracy    <       0.00003819 Ry

     iteration #  5     ecut=    90.00 Ry     beta= 0.20
     Davidson diagonalization with overlap
     ethr =  4.77E-07,  avg # of iterations =  1.8

     total cpu time spent up to now is       20.2 secs

     total energy              =     -36.85847358 Ry
     Harris-Foulkes estimate   =     -36.85847305 Ry
     estimated scf accuracy    <       0.00000213 Ry

     iteration #  6     ecut=    90.00 Ry     beta= 0.20
     Davidson diagonalization with overlap
     ethr =  2.66E-08,  avg # of iterations =  1.5

     total cpu time spent up to now is       20.4 secs

     total energy              =     -36.85847381 Ry
     Harris-Foulkes estimate   =     -36.85847375 Ry
     estimated scf accuracy    <       0.00000064 Ry

     iteration #  7     ecut=    90.00 Ry     beta= 0.20
     Davidson diagonalization with overlap
     ethr =  8.06E-09,  avg # of iterations =  2.0

     total cpu time spent up to now is       20.7 secs

     total energy              =     -36.85847390 Ry
     Harris-Foulkes estimate   =     -36.85847390 Ry
     estimated scf accuracy    <       0.00000002 Ry

     iteration #  8     ecut=    90.00 Ry     beta= 0.20
     Davidson diagonalization with overlap
     ethr =  2.21E-10,  avg # of iterations =  2.1

     total cpu time spent up to now is       20.9 secs

     total energy              =     -36.85847391 Ry
     Harris-Foulkes estimate   =     -36.85847390 Ry
     estimated scf accuracy    <       0.00000001 Ry

     iteration #  9     ecut=    90.00 Ry     beta= 0.20
     Davidson diagonalization with overlap
     ethr =  1.44E-10,  avg # of iterations =  1.1

     total cpu time spent up to now is       21.1 secs

     total energy              =     -36.85847391 Ry
     Harris-Foulkes estimate   =     -36.85847391 Ry
     estimated scf accuracy    <          1.2E-09 Ry

     iteration # 10     ecut=    90.00 Ry     beta= 0.20
     Davidson diagonalization with overlap
     ethr =  1.48E-11,  avg # of iterations =  2.0

     total cpu time spent up to now is       21.3 secs

     End of self-consistent calculation

          k = 0.0000 0.0000 0.0000 (  1139 PWs)   bands (ev):

    -8.1424  13.2499  13.2499  13.2499

          k =-0.2220 0.2220-0.2220 (  1101 PWs)   bands (ev):

    -6.4362   6.6845  11.5134  11.5134

          k = 0.4440-0.4440 0.4440 (  1104 PWs)   bands (ev):

    -2.4059  -0.0589  10.4633  10.4633

          k = 0.0000 0.4440 0.0000 (  1094 PWs)   bands (ev):

    -5.8697   8.7389   9.1509   9.1509

          k = 0.6660-0.2220 0.6660 (  1108 PWs)   bands (ev):

    -2.1536   2.5044   6.5386   8.3990

          k = 0.4440 0.0000 0.4440 (  1117 PWs)   bands (ev):

    -3.6987   4.5768   5.6813  10.2536

          k = 0.0000-0.8880 0.0000 (  1106 PWs)   bands (ev):

     0.5260   0.5260   6.9843   6.9843

          k =-0.4440-0.8880-0.0000 (  1124 PWs)   bands (ev):

     1.3070   1.3070   4.9763   4.9763

     highest occupied level (ev):    13.2499

!    total energy              =     -36.85847391 Ry
     Harris-Foulkes estimate   =     -36.85847391 Ry
     estimated scf accuracy    <          4.5E-12 Ry

     total all-electron energy =      -152.386668 Ry

     The total energy is the sum of the following terms:

     one-electron contribution =       8.38331937 Ry
     hartree contribution      =       1.96400805 Ry
     xc contribution           =      -9.37091563 Ry
     ewald contribution        =     -25.51142562 Ry
     one-center paw contrib.   =     -12.32346008 Ry

     convergence has been achieved in  10 iterations

     Forces acting on atoms (cartesian axes, Ry/au):

     atom    1 type  1   force =    -0.00000000    0.00000000   -0.00000000
     atom    2 type  1   force =    -0.00000000   -0.00000000    0.00000000

     Total force =     0.000000     Total SCF correction =     0.000000


     Computing stress (Cartesian axis) and pressure

          total   stress  (Ry/bohr**3)                   (kbar)     P=    1.62
   0.00001098  -0.00000000   0.00000000          1.62     -0.00      0.00
  -0.00000000   0.00001098  -0.00000000         -0.00      1.62     -0.00
   0.00000000  -0.00000000   0.00001098          0.00     -0.00      1.62


     Writing output data file diamond.save/

     init_run     :      1.24s CPU      0.94s WALL (       2 calls)
     electrons    :     35.27s CPU     15.49s WALL (       8 calls)
     update_pot   :      2.10s CPU      1.50s WALL (       6 calls)
     forces       :      2.00s CPU      1.00s WALL (       8 calls)
     stress       :      2.26s CPU      1.76s WALL (       8 calls)

     Called by init_run:
     wfcinit      :      0.37s CPU      0.18s WALL (       2 calls)
     potinit      :      0.14s CPU      0.14s WALL (       2 calls)
     hinit0       :      0.66s CPU      0.56s WALL (       2 calls)

     Called by electrons:
     c_bands      :     17.08s CPU      7.46s WALL (      73 calls)
     sum_band     :      4.23s CPU      1.80s WALL (      73 calls)
     v_of_rho     :      2.75s CPU      1.21s WALL (      80 calls)
     newd         :      0.60s CPU      0.38s WALL (      80 calls)
     PAW_pot      :     11.66s CPU      5.29s WALL (      86 calls)
     mix_rho      :      0.32s CPU      0.13s WALL (      73 calls)

     Called by c_bands:
     init_us_2    :      0.45s CPU      0.18s WALL (    1360 calls)
     cegterg      :     16.36s CPU      7.18s WALL (     584 calls)

     Called by sum_band:
     sum_band:bec :      0.00s CPU      0.00s WALL (     632 calls)
     addusdens    :      0.56s CPU      0.21s WALL (      73 calls)

     Called by *egterg:
     h_psi        :     15.60s CPU      6.86s WALL (    1860 calls)
     s_psi        :      0.16s CPU      0.07s WALL (    1860 calls)
     g_psi        :      0.05s CPU      0.02s WALL (    1260 calls)
     cdiaghg      :      0.27s CPU      0.11s WALL (    1788 calls)

     Called by h_psi:
     h_psi:pot    :     15.57s CPU      6.85s WALL (    1860 calls)
     h_psi:calbec :      1.67s CPU      1.28s WALL (    1860 calls)
     vloc_psi     :     13.74s CPU      5.51s WALL (    1860 calls)
     add_vuspsi   :      0.15s CPU      0.06s WALL (    1860 calls)

     General routines
     calbec       :      2.24s CPU      1.62s WALL (    2812 calls)
     fft          :      2.16s CPU      0.96s WALL (    1087 calls)
     ffts         :      0.14s CPU      0.07s WALL (      73 calls)
     fftw         :     14.86s CPU      5.96s WALL (   16040 calls)

     Parallel routines

     PWSCF        :     44.36s CPU     21.40s WALL


   This run was terminated on:  21:14:29  12May2023            

=------------------------------------------------------------------------------=
   JOB DONE.
=------------------------------------------------------------------------------=
