
     Program PWSCF v.6.4.1 starts on 12May2023 at 20:21:56 

     This program is part of the open-source Quantum ESPRESSO suite
     for quantum simulation of materials; please cite
         "P. Giannozzi et al., J. Phys.:Condens. Matter 21 395502 (2009);
         "P. Giannozzi et al., J. Phys.:Condens. Matter 29 465901 (2017);
          URL http://www.quantum-espresso.org", 
     in publications or presentations arising from this work. More details at
     http://www.quantum-espresso.org/quote

     Parallel version (MPI), running on     1 processors

     MPI processes distributed on     1 nodes
     Waiting for input...
     Reading input from standard input

     Current dimensions of program PWSCF are:
     Max number of different atomic species (ntypx) = 10
     Max number of k-points (npk) =  40000
     Max angular momentum in pseudopotentials (lmaxx) =  3
               file C.pbe-n-kjpaw_psl.1.0.0.UPF: wavefunction(s)  2S 2P renormalized

     Subspace diagonalization in iterative solution of the eigenvalue problem:
     a serial algorithm will be used


     G-vector sticks info
     --------------------
     sticks:   dense  smooth     PW     G-vecs:    dense   smooth      PW
     Sum         517     517    163                 7823     7823    1363



     bravais-lattice index     =            2
     lattice parameter (alat)  =       6.5000  a.u.
     unit-cell volume          =      68.6562 (a.u.)^3
     number of atoms/cell      =            2
     number of atomic types    =            1
     number of electrons       =         8.00
     number of Kohn-Sham states=            4
     kinetic-energy cutoff     =      90.0000  Ry
     charge density cutoff     =     360.0000  Ry
     convergence threshold     =      1.0E-08
     mixing beta               =       0.2000
     number of iterations used =            8  plain     mixing
     Exchange-correlation      = SLA PW PBX PBC ( 1  4  3  4 0 0)

     celldm(1)=   6.500000  celldm(2)=   0.000000  celldm(3)=   0.000000
     celldm(4)=   0.000000  celldm(5)=   0.000000  celldm(6)=   0.000000

     crystal axes: (cart. coord. in units of alat)
               a(1) = (  -0.500000   0.000000   0.500000 )  
               a(2) = (   0.000000   0.500000   0.500000 )  
               a(3) = (  -0.500000   0.500000   0.000000 )  

     reciprocal axes: (cart. coord. in units 2 pi/alat)
               b(1) = ( -1.000000 -1.000000  1.000000 )  
               b(2) = (  1.000000  1.000000  1.000000 )  
               b(3) = ( -1.000000  1.000000 -1.000000 )  


     PseudoPot. # 1 for C  read from file:
     ../../pseudo/C.pbe-n-kjpaw_psl.1.0.0.UPF
     MD5 check sum: 5f16ad9a65e90284d1d834d4ab3b0f7d
     Pseudo is Projector augmented-wave + core cor, Zval =  4.0
     Generated using "atomic" code by A. Dal Corso v.6.3
     Shape of augmentation charge: PSQ
     Using radial grid of 1073 points,  4 beta functions with: 
                l(1) =   0
                l(2) =   0
                l(3) =   1
                l(4) =   1
     Q(r) pseudized with 0 coefficients 


     atomic species   valence    mass     pseudopotential
        C              4.00    12.00000     C ( 1.00)

     48 Sym. Ops., with inversion, found (36 have fractional translation)



   Cartesian axes

     site n.     atom                  positions (alat units)
         1           C   tau(   1) = (  -0.1250000   0.1250000   0.1250000  )
         2           C   tau(   2) = (  -0.8750000   0.8750000   0.8750000  )

     number of k points=     8
                       cart. coord. in units 2pi/alat
        k(    1) = (   0.0000000   0.0000000   0.0000000), wk =   0.0312500
        k(    2) = (  -0.2500000   0.2500000  -0.2500000), wk =   0.2500000
        k(    3) = (   0.5000000  -0.5000000   0.5000000), wk =   0.1250000
        k(    4) = (   0.0000000   0.5000000   0.0000000), wk =   0.1875000
        k(    5) = (   0.7500000  -0.2500000   0.7500000), wk =   0.7500000
        k(    6) = (   0.5000000   0.0000000   0.5000000), wk =   0.3750000
        k(    7) = (   0.0000000  -1.0000000   0.0000000), wk =   0.0937500
        k(    8) = (  -0.5000000  -1.0000000   0.0000000), wk =   0.1875000

     Dense  grid:     7823 G-vectors     FFT dimensions: (  30,  30,  30)

     Estimated max dynamical RAM per process >      11.71 MB

     Check: negative core charge=   -0.000014

     Initial potential from superposition of free atoms

     starting charge    7.99992, renormalised to    8.00000
     Starting wfcs are    8 randomized atomic wfcs
     Checking if some PAW data can be deallocated... 

     total cpu time spent up to now is        0.5 secs

     Self-consistent Calculation

     iteration #  1     ecut=    90.00 Ry     beta= 0.20
     Davidson diagonalization with overlap
     ethr =  1.00E-04,  avg # of iterations =  3.9

     total cpu time spent up to now is        0.9 secs

     total energy              =     -36.87491030 Ry
     Harris-Foulkes estimate   =     -36.90609166 Ry
     estimated scf accuracy    <       0.15464211 Ry

     iteration #  2     ecut=    90.00 Ry     beta= 0.20
     Davidson diagonalization with overlap
     ethr =  1.93E-03,  avg # of iterations =  1.0

     total cpu time spent up to now is        1.1 secs

     total energy              =     -36.83320247 Ry
     Harris-Foulkes estimate   =     -36.87590323 Ry
     estimated scf accuracy    <       0.08707376 Ry

     iteration #  3     ecut=    90.00 Ry     beta= 0.20
     Davidson diagonalization with overlap
     ethr =  1.09E-03,  avg # of iterations =  1.6

     total cpu time spent up to now is        1.3 secs

     total energy              =     -36.84163593 Ry
     Harris-Foulkes estimate   =     -36.84164880 Ry
     estimated scf accuracy    <       0.00049237 Ry

     iteration #  4     ecut=    90.00 Ry     beta= 0.20
     Davidson diagonalization with overlap
     ethr =  6.15E-06,  avg # of iterations =  2.8

     total cpu time spent up to now is        1.5 secs

     total energy              =     -36.84196506 Ry
     Harris-Foulkes estimate   =     -36.84195827 Ry
     estimated scf accuracy    <       0.00005246 Ry

     iteration #  5     ecut=    90.00 Ry     beta= 0.20
     Davidson diagonalization with overlap
     ethr =  6.56E-07,  avg # of iterations =  1.5

     total cpu time spent up to now is        1.7 secs

     total energy              =     -36.84197018 Ry
     Harris-Foulkes estimate   =     -36.84196904 Ry
     estimated scf accuracy    <       0.00000182 Ry

     iteration #  6     ecut=    90.00 Ry     beta= 0.20
     Davidson diagonalization with overlap
     ethr =  2.28E-08,  avg # of iterations =  2.0

     total cpu time spent up to now is        1.9 secs

     total energy              =     -36.84197022 Ry
     Harris-Foulkes estimate   =     -36.84197048 Ry
     estimated scf accuracy    <       0.00000144 Ry

     iteration #  7     ecut=    90.00 Ry     beta= 0.20
     Davidson diagonalization with overlap
     ethr =  1.79E-08,  avg # of iterations =  2.0

     total cpu time spent up to now is        2.0 secs

     total energy              =     -36.84197040 Ry
     Harris-Foulkes estimate   =     -36.84197040 Ry
     estimated scf accuracy    <       0.00000007 Ry

     iteration #  8     ecut=    90.00 Ry     beta= 0.20
     Davidson diagonalization with overlap
     ethr =  8.61E-10,  avg # of iterations =  1.4

     total cpu time spent up to now is        2.2 secs

     total energy              =     -36.84197040 Ry
     Harris-Foulkes estimate   =     -36.84197040 Ry
     estimated scf accuracy    <       0.00000002 Ry

     iteration #  9     ecut=    90.00 Ry     beta= 0.20
     Davidson diagonalization with overlap
     ethr =  1.96E-10,  avg # of iterations =  2.0

     total cpu time spent up to now is        2.4 secs

     End of self-consistent calculation

          k = 0.0000 0.0000 0.0000 (   965 PWs)   bands (ev):

    -7.5722  15.4434  15.4434  15.4434

          k =-0.2500 0.2500-0.2500 (   983 PWs)   bands (ev):

    -5.7237   8.2972  13.4973  13.4973

          k = 0.5000-0.5000 0.5000 (   978 PWs)   bands (ev):

    -1.1375   0.7795  12.3433  12.3433

          k = 0.0000 0.5000 0.0000 (   998 PWs)   bands (ev):

    -5.1117  10.7844  10.8360  10.8360

          k = 0.7500-0.2500 0.7500 (   998 PWs)   bands (ev):

    -1.0280   3.8120   8.0999  10.0146

          k = 0.5000 0.0000 0.5000 (   983 PWs)   bands (ev):

    -2.7369   6.1563   7.0418  12.0949

          k = 0.0000-1.0000 0.0000 (   982 PWs)   bands (ev):

     1.8535   1.8535   8.4411   8.4411

          k =-0.5000-1.0000 0.0000 (   992 PWs)   bands (ev):

     2.8404   2.8404   6.1149   6.1149

     highest occupied level (ev):    15.4434

!    total energy              =     -36.84197040 Ry
     Harris-Foulkes estimate   =     -36.84197040 Ry
     estimated scf accuracy    <          2.0E-10 Ry

     total all-electron energy =      -152.370165 Ry

     The total energy is the sum of the following terms:

     one-electron contribution =       9.73360042 Ry
     hartree contribution      =       1.84702610 Ry
     xc contribution           =      -9.57381894 Ry
     ewald contribution        =     -26.51962114 Ry
     one-center paw contrib.   =     -12.32915685 Ry

     convergence has been achieved in   9 iterations

     Writing output data file diamond.save/

     init_run     :      0.60s CPU      0.38s WALL (       1 calls)
     electrons    :      4.31s CPU      1.86s WALL (       1 calls)

     Called by init_run:
     wfcinit      :      0.40s CPU      0.17s WALL (       1 calls)
     potinit      :      0.05s CPU      0.05s WALL (       1 calls)
     hinit0       :      0.11s CPU      0.11s WALL (       1 calls)

     Called by electrons:
     c_bands      :      2.00s CPU      0.84s WALL (       9 calls)
     sum_band     :      0.51s CPU      0.24s WALL (       9 calls)
     v_of_rho     :      0.39s CPU      0.16s WALL (      10 calls)
     newd         :      0.10s CPU      0.07s WALL (      10 calls)
     PAW_pot      :      1.36s CPU      0.62s WALL (      10 calls)
     mix_rho      :      0.03s CPU      0.02s WALL (       9 calls)

     Called by c_bands:
     init_us_2    :      0.07s CPU      0.03s WALL (     152 calls)
     cegterg      :      1.89s CPU      0.80s WALL (      72 calls)

     Called by sum_band:
     sum_band:bec :      0.00s CPU      0.00s WALL (      72 calls)
     addusdens    :      0.06s CPU      0.03s WALL (       9 calls)

     Called by *egterg:
     h_psi        :      2.12s CPU      0.91s WALL (     225 calls)
     s_psi        :      0.02s CPU      0.01s WALL (     225 calls)
     g_psi        :      0.01s CPU      0.00s WALL (     145 calls)
     cdiaghg      :      0.02s CPU      0.01s WALL (     217 calls)

     Called by h_psi:
     h_psi:pot    :      2.11s CPU      0.90s WALL (     225 calls)
     h_psi:calbec :      0.13s CPU      0.09s WALL (     225 calls)
     vloc_psi     :      1.96s CPU      0.81s WALL (     225 calls)
     add_vuspsi   :      0.02s CPU      0.01s WALL (     225 calls)

     General routines
     calbec       :      0.17s CPU      0.12s WALL (     297 calls)
     fft          :      0.27s CPU      0.11s WALL (     110 calls)
     ffts         :      0.02s CPU      0.01s WALL (       9 calls)
     fftw         :      2.10s CPU      0.87s WALL (    1948 calls)

     Parallel routines

     PWSCF        :      5.10s CPU      2.42s WALL


   This run was terminated on:  20:21:58  12May2023            

=------------------------------------------------------------------------------=
   JOB DONE.
=------------------------------------------------------------------------------=
