
     Program PWSCF v.6.4.1 starts on 12May2023 at 20:20:44 

     This program is part of the open-source Quantum ESPRESSO suite
     for quantum simulation of materials; please cite
         "P. Giannozzi et al., J. Phys.:Condens. Matter 21 395502 (2009);
         "P. Giannozzi et al., J. Phys.:Condens. Matter 29 465901 (2017);
          URL http://www.quantum-espresso.org", 
     in publications or presentations arising from this work. More details at
     http://www.quantum-espresso.org/quote

     Parallel version (MPI), running on     1 processors

     MPI processes distributed on     1 nodes
     Waiting for input...
     Reading input from standard input

     Current dimensions of program PWSCF are:
     Max number of different atomic species (ntypx) = 10
     Max number of k-points (npk) =  40000
     Max angular momentum in pseudopotentials (lmaxx) =  3
               file C.pbe-n-kjpaw_psl.1.0.0.UPF: wavefunction(s)  2S 2P renormalized

     Subspace diagonalization in iterative solution of the eigenvalue problem:
     a serial algorithm will be used


     G-vector sticks info
     --------------------
     sticks:   dense  smooth     PW     G-vecs:    dense   smooth      PW
     Sum         187     187     61                 1687     1687     339



     bravais-lattice index     =            2
     lattice parameter (alat)  =       3.9000  a.u.
     unit-cell volume          =      14.8297 (a.u.)^3
     number of atoms/cell      =            2
     number of atomic types    =            1
     number of electrons       =         8.00
     number of Kohn-Sham states=            4
     kinetic-energy cutoff     =      90.0000  Ry
     charge density cutoff     =     360.0000  Ry
     convergence threshold     =      1.0E-08
     mixing beta               =       0.2000
     number of iterations used =            8  plain     mixing
     Exchange-correlation      = SLA PW PBX PBC ( 1  4  3  4 0 0)

     celldm(1)=   3.900000  celldm(2)=   0.000000  celldm(3)=   0.000000
     celldm(4)=   0.000000  celldm(5)=   0.000000  celldm(6)=   0.000000

     crystal axes: (cart. coord. in units of alat)
               a(1) = (  -0.500000   0.000000   0.500000 )  
               a(2) = (   0.000000   0.500000   0.500000 )  
               a(3) = (  -0.500000   0.500000   0.000000 )  

     reciprocal axes: (cart. coord. in units 2 pi/alat)
               b(1) = ( -1.000000 -1.000000  1.000000 )  
               b(2) = (  1.000000  1.000000  1.000000 )  
               b(3) = ( -1.000000  1.000000 -1.000000 )  


     PseudoPot. # 1 for C  read from file:
     ../../pseudo/C.pbe-n-kjpaw_psl.1.0.0.UPF
     MD5 check sum: 5f16ad9a65e90284d1d834d4ab3b0f7d
     Pseudo is Projector augmented-wave + core cor, Zval =  4.0
     Generated using "atomic" code by A. Dal Corso v.6.3
     Shape of augmentation charge: PSQ
     Using radial grid of 1073 points,  4 beta functions with: 
                l(1) =   0
                l(2) =   0
                l(3) =   1
                l(4) =   1
     Q(r) pseudized with 0 coefficients 


     atomic species   valence    mass     pseudopotential
        C              4.00    12.00000     C ( 1.00)

     48 Sym. Ops., with inversion, found (36 have fractional translation)



   Cartesian axes

     site n.     atom                  positions (alat units)
         1           C   tau(   1) = (  -0.1250000   0.1250000   0.1250000  )
         2           C   tau(   2) = (  -0.8750000   0.8750000   0.8750000  )

     number of k points=     8
                       cart. coord. in units 2pi/alat
        k(    1) = (   0.0000000   0.0000000   0.0000000), wk =   0.0312500
        k(    2) = (  -0.2500000   0.2500000  -0.2500000), wk =   0.2500000
        k(    3) = (   0.5000000  -0.5000000   0.5000000), wk =   0.1250000
        k(    4) = (   0.0000000   0.5000000   0.0000000), wk =   0.1875000
        k(    5) = (   0.7500000  -0.2500000   0.7500000), wk =   0.7500000
        k(    6) = (   0.5000000   0.0000000   0.5000000), wk =   0.3750000
        k(    7) = (   0.0000000  -1.0000000   0.0000000), wk =   0.0937500
        k(    8) = (  -0.5000000  -1.0000000   0.0000000), wk =   0.1875000

     Dense  grid:     1687 G-vectors     FFT dimensions: (  18,  18,  18)

     Estimated max dynamical RAM per process >       2.70 MB

     Check: negative core charge=   -0.000004

     Initial potential from superposition of free atoms

     starting charge    7.99992, renormalised to    8.00000
     Starting wfcs are    8 randomized atomic wfcs
     Checking if some PAW data can be deallocated... 

     total cpu time spent up to now is        0.4 secs

     Self-consistent Calculation

     iteration #  1     ecut=    90.00 Ry     beta= 0.20
     Davidson diagonalization with overlap
     ethr =  1.00E-04,  avg # of iterations =  3.2

     total cpu time spent up to now is        0.5 secs

     total energy              =     -29.97245793 Ry
     Harris-Foulkes estimate   =     -30.21072589 Ry
     estimated scf accuracy    <       0.73760548 Ry

     iteration #  2     ecut=    90.00 Ry     beta= 0.20
     Davidson diagonalization with overlap
     ethr =  9.22E-03,  avg # of iterations =  1.0

     total cpu time spent up to now is        0.5 secs

     total energy              =     -29.66813421 Ry
     Harris-Foulkes estimate   =     -29.97773242 Ry
     estimated scf accuracy    <       0.42070000 Ry

     iteration #  3     ecut=    90.00 Ry     beta= 0.20
     Davidson diagonalization with overlap
     ethr =  5.26E-03,  avg # of iterations =  2.0

     total cpu time spent up to now is        0.6 secs

     total energy              =     -29.71518178 Ry
     Harris-Foulkes estimate   =     -29.71528344 Ry
     estimated scf accuracy    <       0.00023439 Ry

     iteration #  4     ecut=    90.00 Ry     beta= 0.20
     Davidson diagonalization with overlap
     ethr =  2.93E-06,  avg # of iterations =  3.0

     total cpu time spent up to now is        0.8 secs

     total energy              =     -29.71622046 Ry
     Harris-Foulkes estimate   =     -29.71627345 Ry
     estimated scf accuracy    <       0.00012559 Ry

     iteration #  5     ecut=    90.00 Ry     beta= 0.20
     Davidson diagonalization with overlap
     ethr =  1.57E-06,  avg # of iterations =  2.0

     total cpu time spent up to now is        0.9 secs

     total energy              =     -29.71621011 Ry
     Harris-Foulkes estimate   =     -29.71623829 Ry
     estimated scf accuracy    <       0.00002712 Ry

     iteration #  6     ecut=    90.00 Ry     beta= 0.20
     Davidson diagonalization with overlap
     ethr =  3.39E-07,  avg # of iterations =  1.5

     total cpu time spent up to now is        0.9 secs

     total energy              =     -29.71621109 Ry
     Harris-Foulkes estimate   =     -29.71621201 Ry
     estimated scf accuracy    <       0.00000234 Ry

     iteration #  7     ecut=    90.00 Ry     beta= 0.20
     Davidson diagonalization with overlap
     ethr =  2.92E-08,  avg # of iterations =  1.4

     total cpu time spent up to now is        1.0 secs

     total energy              =     -29.71621122 Ry
     Harris-Foulkes estimate   =     -29.71621125 Ry
     estimated scf accuracy    <       0.00000010 Ry

     iteration #  8     ecut=    90.00 Ry     beta= 0.20
     Davidson diagonalization with overlap
     ethr =  1.19E-09,  avg # of iterations =  2.1

     total cpu time spent up to now is        1.1 secs

     End of self-consistent calculation

          k = 0.0000 0.0000 0.0000 (   181 PWs)   bands (ev):

    13.8992  73.0688  73.0688  73.0688

          k =-0.2500 0.2500-0.2500 (   205 PWs)   bands (ev):

    16.7342  51.9047  65.3661  65.3661

          k = 0.5000-0.5000 0.5000 (   210 PWs)   bands (ev):

    21.1811  39.4881  62.0643  62.0643

          k = 0.0000 0.5000 0.0000 (   218 PWs)   bands (ev):

    18.3651  54.4537  54.4537  63.5695

          k = 0.7500-0.2500 0.7500 (   214 PWs)   bands (ev):

    24.9031  41.3582  51.8078  52.0935

          k = 0.5000 0.0000 0.5000 (   218 PWs)   bands (ev):

    21.6259  45.9525  49.3652  60.2844

          k = 0.0000-1.0000 0.0000 (   222 PWs)   bands (ev):

    34.9945  34.9945  46.4792  46.4792

          k =-0.5000-1.0000 0.0000 (   208 PWs)   bands (ev):

    34.1235  34.1235  46.6116  46.6116

     highest occupied level (ev):    73.0688

!    total energy              =     -29.71621125 Ry
     Harris-Foulkes estimate   =     -29.71621125 Ry
     estimated scf accuracy    <          6.0E-09 Ry

     total all-electron energy =      -145.244406 Ry

     The total energy is the sum of the following terms:

     one-electron contribution =      39.97239482 Ry
     hartree contribution      =       0.72087173 Ry
     xc contribution           =     -13.61823552 Ry
     ewald contribution        =     -44.19936858 Ry
     one-center paw contrib.   =     -12.59187371 Ry

     convergence has been achieved in   8 iterations

     Writing output data file diamond.save/

     init_run     :      0.16s CPU      0.15s WALL (       1 calls)
     electrons    :      1.50s CPU      0.78s WALL (       1 calls)

     Called by init_run:
     wfcinit      :      0.02s CPU      0.01s WALL (       1 calls)
     potinit      :      0.04s CPU      0.05s WALL (       1 calls)
     hinit0       :      0.09s CPU      0.09s WALL (       1 calls)

     Called by electrons:
     c_bands      :      0.33s CPU      0.18s WALL (       8 calls)
     sum_band     :      0.07s CPU      0.03s WALL (       8 calls)
     v_of_rho     :      0.03s CPU      0.02s WALL (       9 calls)
     newd         :      0.01s CPU      0.01s WALL (       9 calls)
     PAW_pot      :      1.09s CPU      0.58s WALL (       9 calls)
     mix_rho      :      0.00s CPU      0.00s WALL (       8 calls)

     Called by c_bands:
     init_us_2    :      0.01s CPU      0.00s WALL (     136 calls)
     cegterg      :      0.31s CPU      0.17s WALL (      64 calls)

     Called by sum_band:
     sum_band:bec :      0.00s CPU      0.00s WALL (      64 calls)
     addusdens    :      0.01s CPU      0.01s WALL (       8 calls)

     Called by *egterg:
     h_psi        :      0.24s CPU      0.11s WALL (     202 calls)
     s_psi        :      0.01s CPU      0.00s WALL (     202 calls)
     g_psi        :      0.00s CPU      0.00s WALL (     130 calls)
     cdiaghg      :      0.08s CPU      0.06s WALL (     194 calls)

     Called by h_psi:
     h_psi:pot    :      0.24s CPU      0.11s WALL (     202 calls)
     h_psi:calbec :      0.01s CPU      0.00s WALL (     202 calls)
     vloc_psi     :      0.22s CPU      0.10s WALL (     202 calls)
     add_vuspsi   :      0.01s CPU      0.00s WALL (     202 calls)

     General routines
     calbec       :      0.01s CPU      0.00s WALL (     266 calls)
     fft          :      0.02s CPU      0.01s WALL (      99 calls)
     ffts         :      0.00s CPU      0.00s WALL (       8 calls)
     fftw         :      0.24s CPU      0.11s WALL (    1764 calls)

     Parallel routines

     PWSCF        :      1.87s CPU      1.13s WALL


   This run was terminated on:  20:20:45  12May2023            

=------------------------------------------------------------------------------=
   JOB DONE.
=------------------------------------------------------------------------------=
