
     Program PWSCF v.6.4.1 starts on 12May2023 at 20:22:16 

     This program is part of the open-source Quantum ESPRESSO suite
     for quantum simulation of materials; please cite
         "P. Giannozzi et al., J. Phys.:Condens. Matter 21 395502 (2009);
         "P. Giannozzi et al., J. Phys.:Condens. Matter 29 465901 (2017);
          URL http://www.quantum-espresso.org", 
     in publications or presentations arising from this work. More details at
     http://www.quantum-espresso.org/quote

     Parallel version (MPI), running on     1 processors

     MPI processes distributed on     1 nodes
     Waiting for input...
     Reading input from standard input

     Current dimensions of program PWSCF are:
     Max number of different atomic species (ntypx) = 10
     Max number of k-points (npk) =  40000
     Max angular momentum in pseudopotentials (lmaxx) =  3
               file C.pbe-n-kjpaw_psl.1.0.0.UPF: wavefunction(s)  2S 2P renormalized

     Subspace diagonalization in iterative solution of the eigenvalue problem:
     a serial algorithm will be used


     G-vector sticks info
     --------------------
     sticks:   dense  smooth     PW     G-vecs:    dense   smooth      PW
     Sum         637     637    199                10369    10369    1807



     bravais-lattice index     =            2
     lattice parameter (alat)  =       7.1000  a.u.
     unit-cell volume          =      89.4777 (a.u.)^3
     number of atoms/cell      =            2
     number of atomic types    =            1
     number of electrons       =         8.00
     number of Kohn-Sham states=            4
     kinetic-energy cutoff     =      90.0000  Ry
     charge density cutoff     =     360.0000  Ry
     convergence threshold     =      1.0E-08
     mixing beta               =       0.2000
     number of iterations used =            8  plain     mixing
     Exchange-correlation      = SLA PW PBX PBC ( 1  4  3  4 0 0)

     celldm(1)=   7.100000  celldm(2)=   0.000000  celldm(3)=   0.000000
     celldm(4)=   0.000000  celldm(5)=   0.000000  celldm(6)=   0.000000

     crystal axes: (cart. coord. in units of alat)
               a(1) = (  -0.500000   0.000000   0.500000 )  
               a(2) = (   0.000000   0.500000   0.500000 )  
               a(3) = (  -0.500000   0.500000   0.000000 )  

     reciprocal axes: (cart. coord. in units 2 pi/alat)
               b(1) = ( -1.000000 -1.000000  1.000000 )  
               b(2) = (  1.000000  1.000000  1.000000 )  
               b(3) = ( -1.000000  1.000000 -1.000000 )  


     PseudoPot. # 1 for C  read from file:
     ../../pseudo/C.pbe-n-kjpaw_psl.1.0.0.UPF
     MD5 check sum: 5f16ad9a65e90284d1d834d4ab3b0f7d
     Pseudo is Projector augmented-wave + core cor, Zval =  4.0
     Generated using "atomic" code by A. Dal Corso v.6.3
     Shape of augmentation charge: PSQ
     Using radial grid of 1073 points,  4 beta functions with: 
                l(1) =   0
                l(2) =   0
                l(3) =   1
                l(4) =   1
     Q(r) pseudized with 0 coefficients 


     atomic species   valence    mass     pseudopotential
        C              4.00    12.00000     C ( 1.00)

     48 Sym. Ops., with inversion, found (36 have fractional translation)



   Cartesian axes

     site n.     atom                  positions (alat units)
         1           C   tau(   1) = (  -0.1250000   0.1250000   0.1250000  )
         2           C   tau(   2) = (  -0.8750000   0.8750000   0.8750000  )

     number of k points=     8
                       cart. coord. in units 2pi/alat
        k(    1) = (   0.0000000   0.0000000   0.0000000), wk =   0.0312500
        k(    2) = (  -0.2500000   0.2500000  -0.2500000), wk =   0.2500000
        k(    3) = (   0.5000000  -0.5000000   0.5000000), wk =   0.1250000
        k(    4) = (   0.0000000   0.5000000   0.0000000), wk =   0.1875000
        k(    5) = (   0.7500000  -0.2500000   0.7500000), wk =   0.7500000
        k(    6) = (   0.5000000   0.0000000   0.5000000), wk =   0.3750000
        k(    7) = (   0.0000000  -1.0000000   0.0000000), wk =   0.0937500
        k(    8) = (  -0.5000000  -1.0000000   0.0000000), wk =   0.1875000

     Dense  grid:    10369 G-vectors     FFT dimensions: (  32,  32,  32)

     Estimated max dynamical RAM per process >      15.20 MB

     Check: negative core charge=   -0.000013

     Initial potential from superposition of free atoms

     starting charge    7.99992, renormalised to    8.00000
     Starting wfcs are    8 randomized atomic wfcs
     Checking if some PAW data can be deallocated... 

     total cpu time spent up to now is        0.4 secs

     Self-consistent Calculation

     iteration #  1     ecut=    90.00 Ry     beta= 0.20
     Davidson diagonalization with overlap
     ethr =  1.00E-04,  avg # of iterations =  3.9

     total cpu time spent up to now is        0.6 secs

     total energy              =     -36.84963797 Ry
     Harris-Foulkes estimate   =     -36.86347345 Ry
     estimated scf accuracy    <       0.08382927 Ry

     iteration #  2     ecut=    90.00 Ry     beta= 0.20
     Davidson diagonalization with overlap
     ethr =  1.05E-03,  avg # of iterations =  1.0

     total cpu time spent up to now is        0.7 secs

     total energy              =     -36.83142325 Ry
     Harris-Foulkes estimate   =     -36.85013337 Ry
     estimated scf accuracy    <       0.04774346 Ry

     iteration #  3     ecut=    90.00 Ry     beta= 0.20
     Davidson diagonalization with overlap
     ethr =  5.97E-04,  avg # of iterations =  1.5

     total cpu time spent up to now is        0.9 secs

     total energy              =     -36.83539927 Ry
     Harris-Foulkes estimate   =     -36.83541697 Ry
     estimated scf accuracy    <       0.00054334 Ry

     iteration #  4     ecut=    90.00 Ry     beta= 0.20
     Davidson diagonalization with overlap
     ethr =  6.79E-06,  avg # of iterations =  2.2

     total cpu time spent up to now is        1.0 secs

     total energy              =     -36.83557151 Ry
     Harris-Foulkes estimate   =     -36.83556942 Ry
     estimated scf accuracy    <       0.00001073 Ry

     iteration #  5     ecut=    90.00 Ry     beta= 0.20
     Davidson diagonalization with overlap
     ethr =  1.34E-07,  avg # of iterations =  2.5

     total cpu time spent up to now is        1.4 secs

     total energy              =     -36.83557557 Ry
     Harris-Foulkes estimate   =     -36.83557517 Ry
     estimated scf accuracy    <       0.00000066 Ry

     iteration #  6     ecut=    90.00 Ry     beta= 0.20
     Davidson diagonalization with overlap
     ethr =  8.28E-09,  avg # of iterations =  2.2

     total cpu time spent up to now is        1.5 secs

     total energy              =     -36.83557615 Ry
     Harris-Foulkes estimate   =     -36.83557565 Ry
     estimated scf accuracy    <       0.00000027 Ry

     iteration #  7     ecut=    90.00 Ry     beta= 0.20
     Davidson diagonalization with overlap
     ethr =  3.44E-09,  avg # of iterations =  2.0

     total cpu time spent up to now is        1.6 secs

     End of self-consistent calculation

          k = 0.0000 0.0000 0.0000 (  1243 PWs)   bands (ev):

    -8.7762  10.7282  10.7282  10.7282

          k =-0.2500 0.2500-0.2500 (  1305 PWs)   bands (ev):

    -7.2449   4.8139   9.2315   9.2315

          k = 0.5000-0.5000 0.5000 (  1308 PWs)   bands (ev):

    -3.8366  -1.0510   8.3040   8.3040

          k = 0.0000 0.5000 0.0000 (  1299 PWs)   bands (ev):

    -6.7329   6.3599   7.2093   7.2093

          k = 0.7500-0.2500 0.7500 (  1287 PWs)   bands (ev):

    -3.4627   0.9682   4.7745   6.5396

          k = 0.5000 0.0000 0.5000 (  1304 PWs)   bands (ev):

    -4.8126   2.7315   4.1413   8.1362

          k = 0.0000-1.0000 0.0000 (  1298 PWs)   bands (ev):

    -1.0199  -1.0199   5.3087   5.3087

          k =-0.5000-1.0000 0.0000 (  1256 PWs)   bands (ev):

    -0.4501  -0.4501   3.6545   3.6545

     highest occupied level (ev):    10.7282

!    total energy              =     -36.83557621 Ry
     Harris-Foulkes estimate   =     -36.83557621 Ry
     estimated scf accuracy    <          9.8E-09 Ry

     total all-electron energy =      -152.363771 Ry

     The total energy is the sum of the following terms:

     one-electron contribution =       6.76788538 Ry
     hartree contribution      =       2.12503123 Ry
     xc contribution           =      -9.13077271 Ry
     ewald contribution        =     -24.27852640 Ry
     one-center paw contrib.   =     -12.31919370 Ry

     convergence has been achieved in   7 iterations

     Writing output data file diamond.save/

     init_run     :      0.34s CPU      0.27s WALL (       1 calls)
     electrons    :      2.72s CPU      1.18s WALL (       1 calls)

     Called by init_run:
     wfcinit      :      0.14s CPU      0.08s WALL (       1 calls)
     potinit      :      0.05s CPU      0.05s WALL (       1 calls)
     hinit0       :      0.13s CPU      0.13s WALL (       1 calls)

     Called by electrons:
     c_bands      :      0.97s CPU      0.48s WALL (       7 calls)
     sum_band     :      0.30s CPU      0.13s WALL (       7 calls)
     v_of_rho     :      0.19s CPU      0.07s WALL (       8 calls)
     newd         :      0.10s CPU      0.05s WALL (       8 calls)
     PAW_pot      :      1.20s CPU      0.49s WALL (       8 calls)
     mix_rho      :      0.01s CPU      0.01s WALL (       7 calls)

     Called by c_bands:
     init_us_2    :      0.06s CPU      0.02s WALL (     120 calls)
     cegterg      :      0.87s CPU      0.44s WALL (      56 calls)

     Called by sum_band:
     sum_band:bec :      0.00s CPU      0.00s WALL (      56 calls)
     addusdens    :      0.09s CPU      0.03s WALL (       7 calls)

     Called by *egterg:
     h_psi        :      0.77s CPU      0.41s WALL (     187 calls)
     s_psi        :      0.06s CPU      0.03s WALL (     187 calls)
     g_psi        :      0.01s CPU      0.00s WALL (     123 calls)
     cdiaghg      :      0.02s CPU      0.01s WALL (     179 calls)

     Called by h_psi:
     h_psi:pot    :      0.77s CPU      0.41s WALL (     187 calls)
     h_psi:calbec :      0.28s CPU      0.21s WALL (     187 calls)
     vloc_psi     :      0.46s CPU      0.18s WALL (     187 calls)
     add_vuspsi   :      0.03s CPU      0.01s WALL (     187 calls)

     General routines
     calbec       :      0.34s CPU      0.25s WALL (     243 calls)
     fft          :      0.03s CPU      0.01s WALL (      88 calls)
     ffts         :      0.00s CPU      0.00s WALL (       7 calls)
     fftw         :      0.38s CPU      0.15s WALL (    1616 calls)

     Parallel routines

     PWSCF        :      3.27s CPU      1.64s WALL


   This run was terminated on:  20:22:17  12May2023            

=------------------------------------------------------------------------------=
   JOB DONE.
=------------------------------------------------------------------------------=
