
     Program PWSCF v.6.4.1 starts on 12May2023 at 20:21: 6 

     This program is part of the open-source Quantum ESPRESSO suite
     for quantum simulation of materials; please cite
         "P. Giannozzi et al., J. Phys.:Condens. Matter 21 395502 (2009);
         "P. Giannozzi et al., J. Phys.:Condens. Matter 29 465901 (2017);
          URL http://www.quantum-espresso.org", 
     in publications or presentations arising from this work. More details at
     http://www.quantum-espresso.org/quote

     Parallel version (MPI), running on     1 processors

     MPI processes distributed on     1 nodes
     Waiting for input...
     Reading input from standard input

     Current dimensions of program PWSCF are:
     Max number of different atomic species (ntypx) = 10
     Max number of k-points (npk) =  40000
     Max angular momentum in pseudopotentials (lmaxx) =  3
               file C.pbe-n-kjpaw_psl.1.0.0.UPF: wavefunction(s)  2S 2P renormalized

     Subspace diagonalization in iterative solution of the eigenvalue problem:
     a serial algorithm will be used


     G-vector sticks info
     --------------------
     sticks:   dense  smooth     PW     G-vecs:    dense   smooth      PW
     Sum         283     283     91                 3143     3143     609



     bravais-lattice index     =            2
     lattice parameter (alat)  =       4.8000  a.u.
     unit-cell volume          =      27.6480 (a.u.)^3
     number of atoms/cell      =            2
     number of atomic types    =            1
     number of electrons       =         8.00
     number of Kohn-Sham states=            4
     kinetic-energy cutoff     =      90.0000  Ry
     charge density cutoff     =     360.0000  Ry
     convergence threshold     =      1.0E-08
     mixing beta               =       0.2000
     number of iterations used =            8  plain     mixing
     Exchange-correlation      = SLA PW PBX PBC ( 1  4  3  4 0 0)

     celldm(1)=   4.800000  celldm(2)=   0.000000  celldm(3)=   0.000000
     celldm(4)=   0.000000  celldm(5)=   0.000000  celldm(6)=   0.000000

     crystal axes: (cart. coord. in units of alat)
               a(1) = (  -0.500000   0.000000   0.500000 )  
               a(2) = (   0.000000   0.500000   0.500000 )  
               a(3) = (  -0.500000   0.500000   0.000000 )  

     reciprocal axes: (cart. coord. in units 2 pi/alat)
               b(1) = ( -1.000000 -1.000000  1.000000 )  
               b(2) = (  1.000000  1.000000  1.000000 )  
               b(3) = ( -1.000000  1.000000 -1.000000 )  


     PseudoPot. # 1 for C  read from file:
     ../../pseudo/C.pbe-n-kjpaw_psl.1.0.0.UPF
     MD5 check sum: 5f16ad9a65e90284d1d834d4ab3b0f7d
     Pseudo is Projector augmented-wave + core cor, Zval =  4.0
     Generated using "atomic" code by A. Dal Corso v.6.3
     Shape of augmentation charge: PSQ
     Using radial grid of 1073 points,  4 beta functions with: 
                l(1) =   0
                l(2) =   0
                l(3) =   1
                l(4) =   1
     Q(r) pseudized with 0 coefficients 


     atomic species   valence    mass     pseudopotential
        C              4.00    12.00000     C ( 1.00)

     48 Sym. Ops., with inversion, found (36 have fractional translation)



   Cartesian axes

     site n.     atom                  positions (alat units)
         1           C   tau(   1) = (  -0.1250000   0.1250000   0.1250000  )
         2           C   tau(   2) = (  -0.8750000   0.8750000   0.8750000  )

     number of k points=     8
                       cart. coord. in units 2pi/alat
        k(    1) = (   0.0000000   0.0000000   0.0000000), wk =   0.0312500
        k(    2) = (  -0.2500000   0.2500000  -0.2500000), wk =   0.2500000
        k(    3) = (   0.5000000  -0.5000000   0.5000000), wk =   0.1250000
        k(    4) = (   0.0000000   0.5000000   0.0000000), wk =   0.1875000
        k(    5) = (   0.7500000  -0.2500000   0.7500000), wk =   0.7500000
        k(    6) = (   0.5000000   0.0000000   0.5000000), wk =   0.3750000
        k(    7) = (   0.0000000  -1.0000000   0.0000000), wk =   0.0937500
        k(    8) = (  -0.5000000  -1.0000000   0.0000000), wk =   0.1875000

     Dense  grid:     3143 G-vectors     FFT dimensions: (  24,  24,  24)

     Estimated max dynamical RAM per process >       5.06 MB

     Check: negative core charge=   -0.000012

     Initial potential from superposition of free atoms

     starting charge    7.99992, renormalised to    8.00000
     Starting wfcs are    8 randomized atomic wfcs
     Checking if some PAW data can be deallocated... 

     total cpu time spent up to now is        0.3 secs

     Self-consistent Calculation

     iteration #  1     ecut=    90.00 Ry     beta= 0.20
     Davidson diagonalization with overlap
     ethr =  1.00E-04,  avg # of iterations =  3.6

     total cpu time spent up to now is        0.5 secs

     total energy              =     -34.98108356 Ry
     Harris-Foulkes estimate   =     -35.12431832 Ry
     estimated scf accuracy    <       0.55243839 Ry

     iteration #  2     ecut=    90.00 Ry     beta= 0.20
     Davidson diagonalization with overlap
     ethr =  6.91E-03,  avg # of iterations =  1.0

     total cpu time spent up to now is        0.5 secs

     total energy              =     -34.78636601 Ry
     Harris-Foulkes estimate   =     -34.98484891 Ry
     estimated scf accuracy    <       0.31251581 Ry

     iteration #  3     ecut=    90.00 Ry     beta= 0.20
     Davidson diagonalization with overlap
     ethr =  3.91E-03,  avg # of iterations =  2.0

     total cpu time spent up to now is        0.6 secs

     total energy              =     -34.82060144 Ry
     Harris-Foulkes estimate   =     -34.82063015 Ry
     estimated scf accuracy    <       0.00033111 Ry

     iteration #  4     ecut=    90.00 Ry     beta= 0.20
     Davidson diagonalization with overlap
     ethr =  4.14E-06,  avg # of iterations =  3.1

     total cpu time spent up to now is        0.8 secs

     total energy              =     -34.82163156 Ry
     Harris-Foulkes estimate   =     -34.82163859 Ry
     estimated scf accuracy    <       0.00017167 Ry

     iteration #  5     ecut=    90.00 Ry     beta= 0.20
     Davidson diagonalization with overlap
     ethr =  2.15E-06,  avg # of iterations =  2.0

     total cpu time spent up to now is        0.9 secs

     total energy              =     -34.82164763 Ry
     Harris-Foulkes estimate   =     -34.82165597 Ry
     estimated scf accuracy    <       0.00004801 Ry

     iteration #  6     ecut=    90.00 Ry     beta= 0.20
     Davidson diagonalization with overlap
     ethr =  6.00E-07,  avg # of iterations =  1.0

     total cpu time spent up to now is        1.0 secs

     total energy              =     -34.82164773 Ry
     Harris-Foulkes estimate   =     -34.82164933 Ry
     estimated scf accuracy    <       0.00000532 Ry

     iteration #  7     ecut=    90.00 Ry     beta= 0.20
     Davidson diagonalization with overlap
     ethr =  6.65E-08,  avg # of iterations =  1.2

     total cpu time spent up to now is        1.1 secs

     total energy              =     -34.82164818 Ry
     Harris-Foulkes estimate   =     -34.82164816 Ry
     estimated scf accuracy    <       0.00000002 Ry

     iteration #  8     ecut=    90.00 Ry     beta= 0.20
     Davidson diagonalization with overlap
     ethr =  2.20E-10,  avg # of iterations =  2.9

     total cpu time spent up to now is        1.2 secs

     total energy              =     -34.82164819 Ry
     Harris-Foulkes estimate   =     -34.82164820 Ry
     estimated scf accuracy    <       0.00000005 Ry

     iteration #  9     ecut=    90.00 Ry     beta= 0.20
     Davidson diagonalization with overlap
     ethr =  2.20E-10,  avg # of iterations =  1.0

     total cpu time spent up to now is        1.3 secs

     End of self-consistent calculation

          k = 0.0000 0.0000 0.0000 (   411 PWs)   bands (ev):

     0.6066  41.4534  41.4534  41.4534

          k =-0.2500 0.2500-0.2500 (   392 PWs)   bands (ev):

     3.5496  27.5253  36.9578  36.9578

          k = 0.5000-0.5000 0.5000 (   392 PWs)   bands (ev):

    10.1559  15.6249  34.7057  34.7057

          k = 0.0000 0.5000 0.0000 (   415 PWs)   bands (ev):

     4.6400  30.6270  30.6270  34.7288

          k = 0.7500-0.2500 0.7500 (   399 PWs)   bands (ev):

    11.3776  19.8323  27.4112  29.0558

          k = 0.5000 0.0000 0.5000 (   407 PWs)   bands (ev):

     8.4189  24.3321  24.6769  33.8703

          k = 0.0000-1.0000 0.0000 (   388 PWs)   bands (ev):

    17.1036  17.1036  25.6313  25.6313

          k =-0.5000-1.0000 0.0000 (   396 PWs)   bands (ev):

    19.0827  19.0827  21.8444  21.8444

     highest occupied level (ev):    41.4534

!    total energy              =     -34.82164819 Ry
     Harris-Foulkes estimate   =     -34.82164819 Ry
     estimated scf accuracy    <          9.1E-09 Ry

     total all-electron energy =      -150.349843 Ry

     The total energy is the sum of the following terms:

     one-electron contribution =      24.06308884 Ry
     hartree contribution      =       1.10824222 Ry
     xc contribution           =     -11.63859527 Ry
     ewald contribution        =     -35.91198696 Ry
     one-center paw contrib.   =     -12.44239702 Ry

     convergence has been achieved in   9 iterations

     Writing output data file diamond.save/

     init_run     :      0.22s CPU      0.18s WALL (       1 calls)
     electrons    :      2.43s CPU      0.98s WALL (       1 calls)

     Called by init_run:
     wfcinit      :      0.06s CPU      0.02s WALL (       1 calls)
     potinit      :      0.05s CPU      0.05s WALL (       1 calls)
     hinit0       :      0.10s CPU      0.10s WALL (       1 calls)

     Called by electrons:
     c_bands      :      0.61s CPU      0.24s WALL (       9 calls)
     sum_band     :      0.15s CPU      0.06s WALL (       9 calls)
     v_of_rho     :      0.09s CPU      0.05s WALL (      10 calls)
     newd         :      0.04s CPU      0.02s WALL (      10 calls)
     PAW_pot      :      1.58s CPU      0.66s WALL (      10 calls)
     mix_rho      :      0.01s CPU      0.01s WALL (       9 calls)

     Called by c_bands:
     init_us_2    :      0.03s CPU      0.01s WALL (     152 calls)
     cegterg      :      0.57s CPU      0.22s WALL (      72 calls)

     Called by sum_band:
     sum_band:bec :      0.00s CPU      0.00s WALL (      72 calls)
     addusdens    :      0.02s CPU      0.01s WALL (       9 calls)

     Called by *egterg:
     h_psi        :      0.53s CPU      0.20s WALL (     223 calls)
     s_psi        :      0.02s CPU      0.01s WALL (     223 calls)
     g_psi        :      0.00s CPU      0.00s WALL (     143 calls)
     cdiaghg      :      0.02s CPU      0.01s WALL (     215 calls)

     Called by h_psi:
     h_psi:pot    :      0.53s CPU      0.20s WALL (     223 calls)
     h_psi:calbec :      0.02s CPU      0.01s WALL (     223 calls)
     vloc_psi     :      0.49s CPU      0.19s WALL (     223 calls)
     add_vuspsi   :      0.02s CPU      0.01s WALL (     223 calls)

     General routines
     calbec       :      0.03s CPU      0.01s WALL (     295 calls)
     fft          :      0.05s CPU      0.02s WALL (     110 calls)
     ffts         :      0.00s CPU      0.00s WALL (       9 calls)
     fftw         :      0.48s CPU      0.18s WALL (    2002 calls)

     Parallel routines

     PWSCF        :      2.84s CPU      1.34s WALL


   This run was terminated on:  20:21: 7  12May2023            

=------------------------------------------------------------------------------=
   JOB DONE.
=------------------------------------------------------------------------------=
