
     Program PWSCF v.6.4.1 starts on 12May2023 at 20:22:21 

     This program is part of the open-source Quantum ESPRESSO suite
     for quantum simulation of materials; please cite
         "P. Giannozzi et al., J. Phys.:Condens. Matter 21 395502 (2009);
         "P. Giannozzi et al., J. Phys.:Condens. Matter 29 465901 (2017);
          URL http://www.quantum-espresso.org", 
     in publications or presentations arising from this work. More details at
     http://www.quantum-espresso.org/quote

     Parallel version (MPI), running on     1 processors

     MPI processes distributed on     1 nodes
     Waiting for input...
     Reading input from standard input

     Current dimensions of program PWSCF are:
     Max number of different atomic species (ntypx) = 10
     Max number of k-points (npk) =  40000
     Max angular momentum in pseudopotentials (lmaxx) =  3
               file C.pbe-n-kjpaw_psl.1.0.0.UPF: wavefunction(s)  2S 2P renormalized

     Subspace diagonalization in iterative solution of the eigenvalue problem:
     a serial algorithm will be used


     G-vector sticks info
     --------------------
     sticks:   dense  smooth     PW     G-vecs:    dense   smooth      PW
     Sum         661     661    199                11191    11191    1893



     bravais-lattice index     =            2
     lattice parameter (alat)  =       7.3000  a.u.
     unit-cell volume          =      97.2542 (a.u.)^3
     number of atoms/cell      =            2
     number of atomic types    =            1
     number of electrons       =         8.00
     number of Kohn-Sham states=            4
     kinetic-energy cutoff     =      90.0000  Ry
     charge density cutoff     =     360.0000  Ry
     convergence threshold     =      1.0E-08
     mixing beta               =       0.2000
     number of iterations used =            8  plain     mixing
     Exchange-correlation      = SLA PW PBX PBC ( 1  4  3  4 0 0)

     celldm(1)=   7.300000  celldm(2)=   0.000000  celldm(3)=   0.000000
     celldm(4)=   0.000000  celldm(5)=   0.000000  celldm(6)=   0.000000

     crystal axes: (cart. coord. in units of alat)
               a(1) = (  -0.500000   0.000000   0.500000 )  
               a(2) = (   0.000000   0.500000   0.500000 )  
               a(3) = (  -0.500000   0.500000   0.000000 )  

     reciprocal axes: (cart. coord. in units 2 pi/alat)
               b(1) = ( -1.000000 -1.000000  1.000000 )  
               b(2) = (  1.000000  1.000000  1.000000 )  
               b(3) = ( -1.000000  1.000000 -1.000000 )  


     PseudoPot. # 1 for C  read from file:
     ../../pseudo/C.pbe-n-kjpaw_psl.1.0.0.UPF
     MD5 check sum: 5f16ad9a65e90284d1d834d4ab3b0f7d
     Pseudo is Projector augmented-wave + core cor, Zval =  4.0
     Generated using "atomic" code by A. Dal Corso v.6.3
     Shape of augmentation charge: PSQ
     Using radial grid of 1073 points,  4 beta functions with: 
                l(1) =   0
                l(2) =   0
                l(3) =   1
                l(4) =   1
     Q(r) pseudized with 0 coefficients 


     atomic species   valence    mass     pseudopotential
        C              4.00    12.00000     C ( 1.00)

     48 Sym. Ops., with inversion, found (36 have fractional translation)



   Cartesian axes

     site n.     atom                  positions (alat units)
         1           C   tau(   1) = (  -0.1250000   0.1250000   0.1250000  )
         2           C   tau(   2) = (  -0.8750000   0.8750000   0.8750000  )

     number of k points=     8
                       cart. coord. in units 2pi/alat
        k(    1) = (   0.0000000   0.0000000   0.0000000), wk =   0.0312500
        k(    2) = (  -0.2500000   0.2500000  -0.2500000), wk =   0.2500000
        k(    3) = (   0.5000000  -0.5000000   0.5000000), wk =   0.1250000
        k(    4) = (   0.0000000   0.5000000   0.0000000), wk =   0.1875000
        k(    5) = (   0.7500000  -0.2500000   0.7500000), wk =   0.7500000
        k(    6) = (   0.5000000   0.0000000   0.5000000), wk =   0.3750000
        k(    7) = (   0.0000000  -1.0000000   0.0000000), wk =   0.0937500
        k(    8) = (  -0.5000000  -1.0000000   0.0000000), wk =   0.1875000

     Dense  grid:    11191 G-vectors     FFT dimensions: (  32,  32,  32)

     Estimated max dynamical RAM per process >      16.21 MB

     Check: negative core charge=   -0.000013

     Initial potential from superposition of free atoms

     starting charge    7.99992, renormalised to    8.00000
     Starting wfcs are    8 randomized atomic wfcs
     Checking if some PAW data can be deallocated... 

     total cpu time spent up to now is        0.4 secs

     Self-consistent Calculation

     iteration #  1     ecut=    90.00 Ry     beta= 0.20
     Davidson diagonalization with overlap
     ethr =  1.00E-04,  avg # of iterations =  3.9

     total cpu time spent up to now is        0.7 secs

     total energy              =     -36.81524095 Ry
     Harris-Foulkes estimate   =     -36.82519704 Ry
     estimated scf accuracy    <       0.06765496 Ry

     iteration #  2     ecut=    90.00 Ry     beta= 0.20
     Davidson diagonalization with overlap
     ethr =  8.46E-04,  avg # of iterations =  1.0

     total cpu time spent up to now is        0.8 secs

     total energy              =     -36.80221613 Ry
     Harris-Foulkes estimate   =     -36.81562354 Ry
     estimated scf accuracy    <       0.03882524 Ry

     iteration #  3     ecut=    90.00 Ry     beta= 0.20
     Davidson diagonalization with overlap
     ethr =  4.85E-04,  avg # of iterations =  1.2

     total cpu time spent up to now is        1.0 secs

     total energy              =     -36.80517032 Ry
     Harris-Foulkes estimate   =     -36.80517645 Ry
     estimated scf accuracy    <       0.00053969 Ry

     iteration #  4     ecut=    90.00 Ry     beta= 0.20
     Davidson diagonalization with overlap
     ethr =  6.75E-06,  avg # of iterations =  2.2

     total cpu time spent up to now is        1.2 secs

     total energy              =     -36.80531740 Ry
     Harris-Foulkes estimate   =     -36.80532884 Ry
     estimated scf accuracy    <       0.00002397 Ry

     iteration #  5     ecut=    90.00 Ry     beta= 0.20
     Davidson diagonalization with overlap
     ethr =  3.00E-07,  avg # of iterations =  2.5

     total cpu time spent up to now is        1.3 secs

     total energy              =     -36.80532416 Ry
     Harris-Foulkes estimate   =     -36.80532396 Ry
     estimated scf accuracy    <       0.00000063 Ry

     iteration #  6     ecut=    90.00 Ry     beta= 0.20
     Davidson diagonalization with overlap
     ethr =  7.93E-09,  avg # of iterations =  2.5

     total cpu time spent up to now is        1.5 secs

     total energy              =     -36.80532497 Ry
     Harris-Foulkes estimate   =     -36.80532439 Ry
     estimated scf accuracy    <       0.00000031 Ry

     iteration #  7     ecut=    90.00 Ry     beta= 0.20
     Davidson diagonalization with overlap
     ethr =  3.84E-09,  avg # of iterations =  2.0

     total cpu time spent up to now is        1.7 secs

     total energy              =     -36.80532495 Ry
     Harris-Foulkes estimate   =     -36.80532505 Ry
     estimated scf accuracy    <       0.00000019 Ry

     iteration #  8     ecut=    90.00 Ry     beta= 0.20
     Davidson diagonalization with overlap
     ethr =  2.35E-09,  avg # of iterations =  2.0

     total cpu time spent up to now is        1.8 secs

     End of self-consistent calculation

          k = 0.0000 0.0000 0.0000 (  1411 PWs)   bands (ev):

    -9.0902   9.4438   9.4438   9.4438

          k =-0.2500 0.2500-0.2500 (  1396 PWs)   bands (ev):

    -7.6531   3.8483   8.0689   8.0689

          k = 0.5000-0.5000 0.5000 (  1404 PWs)   bands (ev):

    -4.5546  -1.5728   7.2054   7.2054

          k = 0.0000 0.5000 0.0000 (  1387 PWs)   bands (ev):

    -7.1700   5.1298   6.2187   6.2187

          k = 0.7500-0.2500 0.7500 (  1406 PWs)   bands (ev):

    -4.1359   0.1631   3.8919   5.5920

          k = 0.5000 0.0000 0.5000 (  1388 PWs)   bands (ev):

    -5.3840   1.7739   3.3666   7.0576

          k = 0.0000-1.0000 0.0000 (  1388 PWs)   bands (ev):

    -1.8183  -1.8183   4.4552   4.4552

          k =-0.5000-1.0000 0.0000 (  1424 PWs)   bands (ev):

    -1.3451  -1.3451   2.9757   2.9757

     highest occupied level (ev):     9.4438

!    total energy              =     -36.80532498 Ry
     Harris-Foulkes estimate   =     -36.80532498 Ry
     estimated scf accuracy    <          7.7E-09 Ry

     total all-electron energy =      -152.333519 Ry

     The total energy is the sum of the following terms:

     one-electron contribution =       5.91014579 Ry
     hartree contribution      =       2.22166908 Ry
     xc contribution           =      -9.00546926 Ry
     ewald contribution        =     -23.61336129 Ry
     one-center paw contrib.   =     -12.31830931 Ry

     convergence has been achieved in   8 iterations

     Writing output data file diamond.save/

     init_run     :      0.32s CPU      0.25s WALL (       1 calls)
     electrons    :      3.14s CPU      1.37s WALL (       1 calls)

     Called by init_run:
     wfcinit      :      0.12s CPU      0.05s WALL (       1 calls)
     potinit      :      0.05s CPU      0.05s WALL (       1 calls)
     hinit0       :      0.13s CPU      0.13s WALL (       1 calls)

     Called by electrons:
     c_bands      :      1.10s CPU      0.47s WALL (       8 calls)
     sum_band     :      0.39s CPU      0.16s WALL (       8 calls)
     v_of_rho     :      0.28s CPU      0.11s WALL (       9 calls)
     newd         :      0.16s CPU      0.10s WALL (       9 calls)
     PAW_pot      :      1.23s CPU      0.58s WALL (       9 calls)
     mix_rho      :      0.02s CPU      0.01s WALL (       8 calls)

     Called by c_bands:
     init_us_2    :      0.09s CPU      0.03s WALL (     136 calls)
     cegterg      :      0.96s CPU      0.42s WALL (      64 calls)

     Called by sum_band:
     sum_band:bec :      0.00s CPU      0.00s WALL (      64 calls)
     addusdens    :      0.09s CPU      0.04s WALL (       8 calls)

     Called by *egterg:
     h_psi        :      0.90s CPU      0.40s WALL (     211 calls)
     s_psi        :      0.04s CPU      0.02s WALL (     211 calls)
     g_psi        :      0.01s CPU      0.00s WALL (     139 calls)
     cdiaghg      :      0.02s CPU      0.01s WALL (     203 calls)

     Called by h_psi:
     h_psi:pot    :      0.90s CPU      0.40s WALL (     211 calls)
     h_psi:calbec :      0.30s CPU      0.17s WALL (     211 calls)
     vloc_psi     :      0.57s CPU      0.22s WALL (     211 calls)
     add_vuspsi   :      0.03s CPU      0.01s WALL (     211 calls)

     General routines
     calbec       :      0.37s CPU      0.21s WALL (     275 calls)
     fft          :      0.03s CPU      0.02s WALL (      99 calls)
     ffts         :      0.01s CPU      0.00s WALL (       8 calls)
     fftw         :      0.50s CPU      0.18s WALL (    1848 calls)

     Parallel routines

     PWSCF        :      3.65s CPU      1.81s WALL


   This run was terminated on:  20:22:22  12May2023            

=------------------------------------------------------------------------------=
   JOB DONE.
=------------------------------------------------------------------------------=
