
     Program PWSCF v.6.4.1 starts on 12May2023 at 14:58:47 

     This program is part of the open-source Quantum ESPRESSO suite
     for quantum simulation of materials; please cite
         "P. Giannozzi et al., J. Phys.:Condens. Matter 21 395502 (2009);
         "P. Giannozzi et al., J. Phys.:Condens. Matter 29 465901 (2017);
          URL http://www.quantum-espresso.org", 
     in publications or presentations arising from this work. More details at
     http://www.quantum-espresso.org/quote

     Parallel version (MPI), running on     1 processors

     MPI processes distributed on     1 nodes

     Program PWSCF v.6.4.1 starts on 12May2023 at 14:58:47 

     This program is part of the open-source Quantum ESPRESSO suite
     for quantum simulation of materials; please cite
         "P. Giannozzi et al., J. Phys.:Condens. Matter 21 395502 (2009);
         "P. Giannozzi et al., J. Phys.:Condens. Matter 29 465901 (2017);
          URL http://www.quantum-espresso.org", 
     in publications or presentations arising from this work. More details at
     http://www.quantum-espresso.org/quote

     Parallel version (MPI), running on     1 processors

     MPI processes distributed on     1 nodes
     Waiting for input...
     Waiting for input...
     Reading input from standard input

     Current dimensions of program PWSCF are:
     Max number of different atomic species (ntypx) = 10
     Max number of k-points (npk) =  40000
     Max angular momentum in pseudopotentials (lmaxx) =  3

     Atomic positions and unit cell read from directory:
     /home/rr/repos/qe-tut/diamond-scf/diamond.save/

               file C.pbe-n-kjpaw_psl.1.0.0.UPF: wavefunction(s)  2S 2P renormalized

     Subspace diagonalization in iterative solution of the eigenvalue problem:
     a serial algorithm will be used


     G-vector sticks info
     --------------------
     sticks:   dense  smooth     PW     G-vecs:    dense   smooth      PW
     Sum         535     535    163                 8099     8099    1411



     bravais-lattice index     =            2
     lattice parameter (alat)  =       6.5674  a.u.
     unit-cell volume          =      70.8142 (a.u.)^3
     number of atoms/cell      =            2
     number of atomic types    =            1
     number of electrons       =         8.00
     number of Kohn-Sham states=            8
     kinetic-energy cutoff     =      90.0000  Ry
     charge density cutoff     =     360.0000  Ry
     Exchange-correlation      = SLA PW PBX PBC ( 1  4  3  4 0 0)

     celldm(1)=   6.567400  celldm(2)=   0.000000  celldm(3)=   0.000000
     celldm(4)=   0.000000  celldm(5)=   0.000000  celldm(6)=   0.000000

     crystal axes: (cart. coord. in units of alat)
               a(1) = (  -0.500000   0.000000   0.500000 )  
               a(2) = (   0.000000   0.500000   0.500000 )  
               a(3) = (  -0.500000   0.500000   0.000000 )  

     reciprocal axes: (cart. coord. in units 2 pi/alat)
               b(1) = ( -1.000000 -1.000000  1.000000 )  
               b(2) = (  1.000000  1.000000  1.000000 )  
               b(3) = ( -1.000000  1.000000 -1.000000 )  


     PseudoPot. # 1 for C  read from file:
     ../pseudo/C.pbe-n-kjpaw_psl.1.0.0.UPF
     MD5 check sum: 5f16ad9a65e90284d1d834d4ab3b0f7d
     Pseudo is Projector augmented-wave + core cor, Zval =  4.0
     Generated using "atomic" code by A. Dal Corso v.6.3
     Shape of augmentation charge: PSQ
     Using radial grid of 1073 points,  4 beta functions with: 
                l(1) =   0
                l(2) =   0
                l(3) =   1
                l(4) =   1
     Q(r) pseudized with 0 coefficients 


     atomic species   valence    mass     pseudopotential
        C              4.00    12.00000     C ( 1.00)

     48 Sym. Ops., with inversion, found (36 have fractional translation)



   Cartesian axes

     site n.     atom                  positions (alat units)
         1           C   tau(   1) = (  -0.1250000   0.1250000   0.1250000  )
         2           C   tau(   2) = (  -0.8750000   0.8750000   0.8750000  )

     number of k points=    91
                       cart. coord. in units 2pi/alat
        k(    1) = (   0.5000000   0.5000000   0.5000000), wk =   0.0219780
        k(    2) = (   0.4750000   0.4750000   0.4750000), wk =   0.0219780
        k(    3) = (   0.4500000   0.4500000   0.4500000), wk =   0.0219780
        k(    4) = (   0.4250000   0.4250000   0.4250000), wk =   0.0219780
        k(    5) = (   0.4000000   0.4000000   0.4000000), wk =   0.0219780
        k(    6) = (   0.3750000   0.3750000   0.3750000), wk =   0.0219780
        k(    7) = (   0.3500000   0.3500000   0.3500000), wk =   0.0219780
        k(    8) = (   0.3250000   0.3250000   0.3250000), wk =   0.0219780
        k(    9) = (   0.3000000   0.3000000   0.3000000), wk =   0.0219780
        k(   10) = (   0.2750000   0.2750000   0.2750000), wk =   0.0219780
        k(   11) = (   0.2500000   0.2500000   0.2500000), wk =   0.0219780
        k(   12) = (   0.2250000   0.2250000   0.2250000), wk =   0.0219780
        k(   13) = (   0.2000000   0.2000000   0.2000000), wk =   0.0219780
        k(   14) = (   0.1750000   0.1750000   0.1750000), wk =   0.0219780
        k(   15) = (   0.1500000   0.1500000   0.1500000), wk =   0.0219780
        k(   16) = (   0.1250000   0.1250000   0.1250000), wk =   0.0219780
        k(   17) = (   0.1000000   0.1000000   0.1000000), wk =   0.0219780
        k(   18) = (   0.0750000   0.0750000   0.0750000), wk =   0.0219780
        k(   19) = (   0.0500000   0.0500000   0.0500000), wk =   0.0219780
        k(   20) = (   0.0250000   0.0250000   0.0250000), wk =   0.0219780
        k(   21) = (   0.0000000   0.0000000   0.0000000), wk =   0.0219780
        k(   22) = (   0.0333333   0.0000000   0.0000000), wk =   0.0219780
        k(   23) = (   0.0666667   0.0000000   0.0000000), wk =   0.0219780
        k(   24) = (   0.1000000   0.0000000   0.0000000), wk =   0.0219780
        k(   25) = (   0.1333333   0.0000000   0.0000000), wk =   0.0219780
        k(   26) = (   0.1666667   0.0000000   0.0000000), wk =   0.0219780
        k(   27) = (   0.2000000   0.0000000   0.0000000), wk =   0.0219780
        k(   28) = (   0.2333333   0.0000000   0.0000000), wk =   0.0219780
        k(   29) = (   0.2666667   0.0000000   0.0000000), wk =   0.0219780
        k(   30) = (   0.3000000   0.0000000   0.0000000), wk =   0.0219780
        k(   31) = (   0.3333333   0.0000000   0.0000000), wk =   0.0219780
        k(   32) = (   0.3666667   0.0000000   0.0000000), wk =   0.0219780
        k(   33) = (   0.4000000   0.0000000   0.0000000), wk =   0.0219780
        k(   34) = (   0.4333333   0.0000000   0.0000000), wk =   0.0219780
        k(   35) = (   0.4666667   0.0000000   0.0000000), wk =   0.0219780
        k(   36) = (   0.5000000   0.0000000   0.0000000), wk =   0.0219780
        k(   37) = (   0.5333333   0.0000000   0.0000000), wk =   0.0219780
        k(   38) = (   0.5666667   0.0000000   0.0000000), wk =   0.0219780
        k(   39) = (   0.6000000   0.0000000   0.0000000), wk =   0.0219780
        k(   40) = (   0.6333333   0.0000000   0.0000000), wk =   0.0219780
        k(   41) = (   0.6666667   0.0000000   0.0000000), wk =   0.0219780
        k(   42) = (   0.7000000   0.0000000   0.0000000), wk =   0.0219780
        k(   43) = (   0.7333333   0.0000000   0.0000000), wk =   0.0219780
        k(   44) = (   0.7666667   0.0000000   0.0000000), wk =   0.0219780
        k(   45) = (   0.8000000   0.0000000   0.0000000), wk =   0.0219780
        k(   46) = (   0.8333333   0.0000000   0.0000000), wk =   0.0219780
        k(   47) = (   0.8666667   0.0000000   0.0000000), wk =   0.0219780
        k(   48) = (   0.9000000   0.0000000   0.0000000), wk =   0.0219780
        k(   49) = (   0.9333333   0.0000000   0.0000000), wk =   0.0219780
        k(   50) = (   0.9666667   0.0000000   0.0000000), wk =   0.0219780
        k(   51) = (   1.0000000   0.0000000   0.0000000), wk =   0.0219780
        k(   52) = (   1.0000000   0.0250000   0.0250000), wk =   0.0219780
        k(   53) = (   1.0000000   0.0500000   0.0500000), wk =   0.0219780
        k(   54) = (   1.0000000   0.0750000   0.0750000), wk =   0.0219780
        k(   55) = (   1.0000000   0.1000000   0.1000000), wk =   0.0219780
        k(   56) = (   1.0000000   0.1250000   0.1250000), wk =   0.0219780
        k(   57) = (   1.0000000   0.1500000   0.1500000), wk =   0.0219780
        k(   58) = (   1.0000000   0.1750000   0.1750000), wk =   0.0219780
        k(   59) = (   1.0000000   0.2000000   0.2000000), wk =   0.0219780
        k(   60) = (   1.0000000   0.2250000   0.2250000), wk =   0.0219780
        k(   61) = (   1.0000000   0.2500000   0.2500000), wk =   0.0219780
        k(   62) = (   0.9666667   0.2416667   0.2416667), wk =   0.0219780
        k(   63) = (   0.9333333   0.2333333   0.2333333), wk =   0.0219780
        k(   64) = (   0.9000000   0.2250000   0.2250000), wk =   0.0219780
        k(   65) = (   0.8666667   0.2166667   0.2166667), wk =   0.0219780
        k(   66) = (   0.8333333   0.2083333   0.2083333), wk =   0.0219780
        k(   67) = (   0.8000000   0.2000000   0.2000000), wk =   0.0219780
        k(   68) = (   0.7666667   0.1916667   0.1916667), wk =   0.0219780
        k(   69) = (   0.7333333   0.1833333   0.1833333), wk =   0.0219780
        k(   70) = (   0.7000000   0.1750000   0.1750000), wk =   0.0219780
        k(   71) = (   0.6666667   0.1666667   0.1666667), wk =   0.0219780
        k(   72) = (   0.6333333   0.1583333   0.1583333), wk =   0.0219780
        k(   73) = (   0.6000000   0.1500000   0.1500000), wk =   0.0219780
        k(   74) = (   0.5666667   0.1416667   0.1416667), wk =   0.0219780
        k(   75) = (   0.5333333   0.1333333   0.1333333), wk =   0.0219780
        k(   76) = (   0.5000000   0.1250000   0.1250000), wk =   0.0219780
        k(   77) = (   0.4666667   0.1166667   0.1166667), wk =   0.0219780
        k(   78) = (   0.4333333   0.1083333   0.1083333), wk =   0.0219780
        k(   79) = (   0.4000000   0.1000000   0.1000000), wk =   0.0219780
        k(   80) = (   0.3666667   0.0916667   0.0916667), wk =   0.0219780
        k(   81) = (   0.3333333   0.0833333   0.0833333), wk =   0.0219780
        k(   82) = (   0.3000000   0.0750000   0.0750000), wk =   0.0219780
        k(   83) = (   0.2666667   0.0666667   0.0666667), wk =   0.0219780
        k(   84) = (   0.2333333   0.0583333   0.0583333), wk =   0.0219780
        k(   85) = (   0.2000000   0.0500000   0.0500000), wk =   0.0219780
        k(   86) = (   0.1666667   0.0416667   0.0416667), wk =   0.0219780
        k(   87) = (   0.1333333   0.0333333   0.0333333), wk =   0.0219780
        k(   88) = (   0.1000000   0.0250000   0.0250000), wk =   0.0219780
        k(   89) = (   0.0666667   0.0166667   0.0166667), wk =   0.0219780
        k(   90) = (   0.0333333   0.0083333   0.0083333), wk =   0.0219780
        k(   91) = (   0.0000000   0.0000000   0.0000000), wk =   0.0219780

     Dense  grid:     8099 G-vectors     FFT dimensions: (  30,  30,  30)

     Estimated max dynamical RAM per process >       9.30 MB

     Check: negative core charge=   -0.000013

     The potential is recalculated from file :
     /home/rr/repos/qe-tut/diamond-scf/diamond.save/charge-density

     Starting wfcs are    8 randomized atomic wfcs
     Checking if some PAW data can be deallocated... 

     Band Structure Calculation
     Davidson diagonalization with overlap

     ethr =  1.00E-04,  avg # of iterations =  4.0

     total cpu time spent up to now is        4.1 secs

     End of band structure calculation

          k = 0.5000 0.5000 0.5000 (  1008 PWs)   bands (ev):

    -1.4889   0.5505  11.8257  11.8257  23.6331  23.6331  24.7811  31.2356

          k = 0.4750 0.4750 0.4750 (  1020 PWs)   bands (ev):

    -1.6912   0.7829  11.8373  11.8373  23.6329  23.6329  24.7716  31.2337

          k = 0.4500 0.4500 0.4500 (  1026 PWs)   bands (ev):

    -2.1409   1.3227  11.8723  11.8723  23.6316  23.6316  24.7431  31.2275

          k = 0.4250 0.4250 0.4250 (  1026 PWs)   bands (ev):

    -2.6660   1.9975  11.9305  11.9305  23.6265  23.6265  24.6953  31.2149

          k = 0.4000 0.4000 0.4000 (  1023 PWs)   bands (ev):

    -3.2015   2.7414  12.0117  12.0117  23.6131  23.6131  24.6274  31.1933

          k = 0.3750 0.3750 0.3750 (  1017 PWs)   bands (ev):

    -3.7239   3.5300  12.1157  12.1157  23.5858  23.5858  24.5387  31.1594

          k = 0.3500 0.3500 0.3500 (  1014 PWs)   bands (ev):

    -4.2234   4.3519  12.2418  12.2418  23.5377  23.5377  24.4280  31.1105

          k = 0.3250 0.3250 0.3250 (  1008 PWs)   bands (ev):

    -4.6952   5.2003  12.3895  12.3895  23.4616  23.4617  24.2935  31.0451

          k = 0.3000 0.3000 0.3000 (  1017 PWs)   bands (ev):

    -5.1363   6.0700  12.5579  12.5579  23.3508  23.3508  24.1333  30.9634

          k = 0.2750 0.2750 0.2750 (  1010 PWs)   bands (ev):

    -5.5452   6.9563  12.7458  12.7458  23.2002  23.2002  23.9452  30.8672

          k = 0.2500 0.2500 0.2500 (  1013 PWs)   bands (ev):

    -5.9208   7.8542  12.9513  12.9513  23.0073  23.0073  23.7266  30.7602

          k = 0.2250 0.2250 0.2250 (  1001 PWs)   bands (ev):

    -6.2621   8.7580  13.1722  13.1722  22.7735  22.7735  23.4750  30.6471

          k = 0.2000 0.2000 0.2000 (  1001 PWs)   bands (ev):

    -6.5686   9.6612  13.4054  13.4054  22.5038  22.5039  23.1885  30.5328

          k = 0.1750 0.1750 0.1750 (   995 PWs)   bands (ev):

    -6.8399  10.5553  13.6467  13.6467  22.2073  22.2073  22.8666  30.4220

          k = 0.1500 0.1500 0.1500 (   995 PWs)   bands (ev):

    -7.0756  11.4294  13.8903  13.8903  21.8959  21.8959  22.5108  30.3189

          k = 0.1250 0.1250 0.1250 (  1001 PWs)   bands (ev):

    -7.2755  12.2688  14.1287  14.1287  21.5845  21.5845  22.1269  30.2270

          k = 0.1000 0.1000 0.1000 (   995 PWs)   bands (ev):

    -7.4392  13.0527  14.3522  14.3522  21.2901  21.2901  21.7275  30.1489

          k = 0.0750 0.0750 0.0750 (   992 PWs)   bands (ev):

    -7.5668  13.7512  14.5487  14.5487  21.0313  21.0313  21.3355  30.0866

          k = 0.0500 0.0500 0.0500 (   989 PWs)   bands (ev):

    -7.6580  14.3208  14.7042  14.7042  20.8274  20.8274  20.9890  30.0413

          k = 0.0250 0.0250 0.0250 (   974 PWs)   bands (ev):

    -7.7127  14.7032  14.8048  14.8048  20.6962  20.6962  20.7419  30.0138

          k = 0.0000 0.0000 0.0000 (   965 PWs)   bands (ev):

    -7.7309  14.8397  14.8397  14.8397  20.6508  20.6508  20.6508  30.0046

          k = 0.0333 0.0000 0.0000 (   965 PWs)   bands (ev):

    -7.7201  14.7908  14.7908  14.8144  20.6424  20.7093  20.7093  30.0098

          k = 0.0667 0.0000 0.0000 (   981 PWs)   bands (ev):

    -7.6877  14.6501  14.6501  14.7388  20.6176  20.8790  20.8790  30.0231

          k = 0.1000 0.0000 0.0000 (   990 PWs)   bands (ev):

    -7.6336  14.4325  14.4325  14.6144  20.5769  21.1446  21.1446  30.0367

          k = 0.1333 0.0000 0.0000 (  1002 PWs)   bands (ev):

    -7.5580  14.1565  14.1565  14.4429  20.5217  21.4876  21.4876  30.0375

          k = 0.1667 0.0000 0.0000 (  1002 PWs)   bands (ev):

    -7.4608  13.8397  13.8397  14.2269  20.4533  21.8903  21.8903  30.0063

          k = 0.2000 0.0000 0.0000 (  1002 PWs)   bands (ev):

    -7.3421  13.4963  13.4963  13.9692  20.3735  22.3381  22.3381  29.9189

          k = 0.2333 0.0000 0.0000 (  1002 PWs)   bands (ev):

    -7.2020  13.1373  13.1373  13.6727  20.2844  22.8195  22.8195  29.7490

          k = 0.2667 0.0000 0.0000 (  1002 PWs)   bands (ev):

    -7.0405  12.7711  12.7711  13.3403  20.1880  23.3260  23.3260  29.4760

          k = 0.3000 0.0000 0.0000 (   998 PWs)   bands (ev):

    -6.8577  12.4037  12.4037  12.9749  20.0864  23.8510  23.8510  29.0936

          k = 0.3333 0.0000 0.0000 (   998 PWs)   bands (ev):

    -6.6537  12.0399  12.0399  12.5791  19.9819  24.3893  24.3893  28.6133

          k = 0.3667 0.0000 0.0000 (  1006 PWs)   bands (ev):

    -6.4287  11.6831  11.6831  12.1553  19.8764  24.9370  24.9370  28.0588

          k = 0.4000 0.0000 0.0000 (   998 PWs)   bands (ev):

    -6.1828  11.3360  11.3360  11.7057  19.7720  25.4907  25.4907  27.4571

          k = 0.4333 0.0000 0.0000 (  1002 PWs)   bands (ev):

    -5.9161  11.0008  11.0008  11.2325  19.6706  26.0476  26.0476  26.8319

          k = 0.4667 0.0000 0.0000 (  1002 PWs)   bands (ev):

    -5.6288  10.6792  10.6792  10.7376  19.5738  26.2019  26.6052  26.6052

          k = 0.5000 0.0000 0.0000 (  1022 PWs)   bands (ev):

    -5.3211  10.2230  10.3725  10.3725  19.4834  25.5805  27.1612  27.1612

          k = 0.5333 0.0000 0.0000 (  1022 PWs)   bands (ev):

    -4.9932   9.6904  10.0820  10.0820  19.4009  24.9772  27.7131  27.7131

          k = 0.5667 0.0000 0.0000 (  1022 PWs)   bands (ev):

    -4.6455   9.1419   9.8085   9.8085  19.3277  24.3984  28.2587  28.2587

          k = 0.6000 0.0000 0.0000 (  1022 PWs)   bands (ev):

    -4.2781   8.5795   9.5528   9.5528  19.2652  23.8484  28.7952  28.7952

          k = 0.6333 0.0000 0.0000 (  1022 PWs)   bands (ev):

    -3.8914   8.0051   9.3156   9.3156  19.2146  23.3299  29.3197  29.3197

          k = 0.6667 0.0000 0.0000 (  1030 PWs)   bands (ev):

    -3.4858   7.4208   9.0975   9.0975  19.1771  22.8445  29.8289  29.8289

          k = 0.7000 0.0000 0.0000 (  1030 PWs)   bands (ev):

    -3.0618   6.8289   8.8990   8.8990  19.1539  22.3929  30.3186  30.3186

          k = 0.7333 0.0000 0.0000 (  1030 PWs)   bands (ev):

    -2.6196   6.2313   8.7203   8.7203  19.1460  21.9751  30.7843  30.7843

          k = 0.7667 0.0000 0.0000 (  1030 PWs)   bands (ev):

    -2.1600   5.6302   8.5620   8.5620  19.1546  21.5908  31.2206  31.2206

          k = 0.8000 0.0000 0.0000 (  1030 PWs)   bands (ev):

    -1.6834   5.0277   8.4242   8.4242  19.1805  21.2393  31.6211  31.6211

          k = 0.8333 0.0000 0.0000 (  1018 PWs)   bands (ev):

    -1.1905   4.4258   8.3073   8.3073  19.2249  20.9197  31.9789  31.9789

          k = 0.8667 0.0000 0.0000 (  1010 PWs)   bands (ev):

    -0.6821   3.8265   8.2113   8.2113  19.2888  20.6309  32.2864  32.2864

          k = 0.9000 0.0000 0.0000 (  1014 PWs)   bands (ev):

    -0.1589   3.2316   8.1365   8.1365  19.3732  20.3717  32.5360  32.5360

          k = 0.9333 0.0000 0.0000 (  1018 PWs)   bands (ev):

     0.3781   2.6427   8.0830   8.0830  19.4792  20.1410  32.7204  32.7205

          k = 0.9667 0.0000 0.0000 (  1026 PWs)   bands (ev):

     0.9279   2.0615   8.0509   8.0509  19.6079  19.9376  32.8338  32.8338

          k = 1.0000 0.0000 0.0000 (  1034 PWs)   bands (ev):

     1.4895   1.4895   8.0402   8.0402  19.7603  19.7603  32.8720  32.8720

          k = 1.0000 0.0250 0.0250 (  1021 PWs)   bands (ev):

     1.4954   1.5003   7.9735   8.0506  19.7700  19.8525  32.8395  32.8578

          k = 1.0000 0.0500 0.0500 (  1021 PWs)   bands (ev):

     1.5127   1.5326   7.7807   8.0818  19.7993  20.1222  32.7426  32.8153

          k = 1.0000 0.0750 0.0750 (  1019 PWs)   bands (ev):

     1.5399   1.5866   7.4806   8.1336  19.8479  20.5516  32.5838  32.7462

          k = 1.0000 0.1000 0.1000 (  1019 PWs)   bands (ev):

     1.5741   1.6620   7.0991   8.2059  19.9159  21.1169  32.3669  32.6526

          k = 1.0000 0.1250 0.1250 (  1019 PWs)   bands (ev):

     1.6103   1.7590   6.6645   8.2983  20.0031  21.7934  32.0969  32.5371

          k = 1.0000 0.1500 0.1500 (  1029 PWs)   bands (ev):

     1.6408   1.8774   6.2050   8.4105  20.1094  22.5589  31.7794  32.4027

          k = 1.0000 0.1750 0.1750 (  1025 PWs)   bands (ev):

     1.6534   2.0172   5.7497   8.5421  20.2345  23.3940  31.4204  32.2522

          k = 1.0000 0.2000 0.2000 (  1021 PWs)   bands (ev):

     1.6300   2.1784   5.3299   8.6924  20.3780  24.2826  31.0263  32.0885

          k = 1.0000 0.2250 0.2250 (  1017 PWs)   bands (ev):

     1.5466   2.3607   4.9798   8.8608  20.5396  25.2104  30.6032  31.9144

          k = 1.0000 0.2500 0.2500 (  1021 PWs)   bands (ev):

     1.3790   2.5641   4.7310   9.0465  20.7187  26.1639  30.1568  31.7323

          k = 0.9667 0.2417 0.2417 (  1019 PWs)   bands (ev):

     1.3062   2.5787   4.8762   8.9923  20.6651  25.8565  30.2691  31.7219

          k = 0.9333 0.2333 0.2333 (  1023 PWs)   bands (ev):

     0.9774   2.7736   5.1434   8.9594  20.6286  25.5782  30.3038  31.5936

          k = 0.9000 0.2250 0.2250 (  1021 PWs)   bands (ev):

     0.5219   3.0640   5.4879   8.9482  20.6075  25.3329  30.2664  31.3852

          k = 0.8667 0.2167 0.2167 (  1019 PWs)   bands (ev):

     0.0186   3.3961   5.8836   8.9591  20.5994  25.1253  30.1650  31.1232

          k = 0.8333 0.2083 0.2083 (  1020 PWs)   bands (ev):

    -0.4998   3.7519   6.3151   8.9923  20.6013  24.9601  30.0084  30.8231

          k = 0.8000 0.2000 0.2000 (  1030 PWs)   bands (ev):

    -1.0187   4.1255   6.7721   9.0481  20.6099  24.8428  29.8052  30.4942

          k = 0.7667 0.1917 0.1917 (  1027 PWs)   bands (ev):

    -1.5302   4.5148   7.2469   9.1265  20.6212  24.7787  29.5627  30.1419

          k = 0.7333 0.1833 0.1833 (  1029 PWs)   bands (ev):

    -2.0298   4.9195   7.7334   9.2275  20.6315  24.7730  29.2867  29.7695

          k = 0.7000 0.1750 0.1750 (  1030 PWs)   bands (ev):

    -2.5145   5.3392   8.2265   9.3512  20.6377  24.8298  28.9820  29.3795

          k = 0.6667 0.1667 0.1667 (  1029 PWs)   bands (ev):

    -2.9822   5.7741   8.7216   9.4973  20.6379  24.9517  28.6518  28.9736

          k = 0.6333 0.1583 0.1583 (  1027 PWs)   bands (ev):

    -3.4315   6.2239   9.2147   9.6656  20.6313  25.1392  28.2984  28.5535

          k = 0.6000 0.1500 0.1500 (  1025 PWs)   bands (ev):

    -3.8613   6.6882   9.7020   9.8559  20.6189  25.3907  27.9236  28.1207

          k = 0.5667 0.1417 0.1417 (  1027 PWs)   bands (ev):

    -4.2707   7.1667  10.0676  10.1802  20.6023  25.7021  27.5285  27.6773

          k = 0.5333 0.1333 0.1333 (  1019 PWs)   bands (ev):

    -4.6590   7.6585  10.3003  10.6463  20.5837  26.0652  27.1141  27.2276

          k = 0.5000 0.1250 0.1250 (  1019 PWs)   bands (ev):

    -5.0256   8.1629  10.5533  11.0976  20.5654  26.4371  26.6813  26.8087

          k = 0.4667 0.1167 0.1167 (  1013 PWs)   bands (ev):

    -5.3701   8.6787  10.8258  11.5317  20.5492  26.2315  26.2417  26.9889

          k = 0.4333 0.1083 0.1083 (  1010 PWs)   bands (ev):

    -5.6921   9.2044  11.1166  11.9465  20.5367  25.7662  25.7761  27.4606

          k = 0.4000 0.1000 0.1000 (  1008 PWs)   bands (ev):

    -5.9913   9.7383  11.4245  12.3401  20.5288  25.2874  25.2939  27.9559

          k = 0.3667 0.0917 0.0917 (  1008 PWs)   bands (ev):

    -6.2673  10.2782  11.7478  12.7108  20.5262  24.7980  24.8057  28.4458

          k = 0.3333 0.0833 0.0833 (  1008 PWs)   bands (ev):

    -6.5200  10.8216  12.0844  13.0571  20.5289  24.3014  24.3149  28.9040

          k = 0.3000 0.0750 0.0750 (  1004 PWs)   bands (ev):

    -6.7491  11.3650  12.4316  13.3774  20.5365  23.8020  23.8243  29.3030

          k = 0.2667 0.0667 0.0667 (  1000 PWs)   bands (ev):

    -6.9545  11.9042  12.7858  13.6703  20.5483  23.3050  23.3373  29.6192

          k = 0.2333 0.0583 0.0583 (   996 PWs)   bands (ev):

    -7.1360  12.4337  13.1423  13.9341  20.5633  22.8170  22.8582  29.8416

          k = 0.2000 0.0500 0.0500 (   996 PWs)   bands (ev):

    -7.2936  12.9463  13.4948  14.1674  20.5803  22.3461  22.3930  29.9753

          k = 0.1667 0.0417 0.0417 (   995 PWs)   bands (ev):

    -7.4271  13.4321  13.8347  14.3684  20.5979  21.9027  21.9501  30.0386

          k = 0.1333 0.0333 0.0333 (   998 PWs)   bands (ev):

    -7.5364  13.8777  14.1507  14.5356  20.6148  21.4998  21.5416  30.0546

          k = 0.1000 0.0250 0.0250 (   995 PWs)   bands (ev):

    -7.6215  14.2652  14.4277  14.6675  20.6295  21.1536  21.1844  30.0449

          k = 0.0667 0.0167 0.0167 (   984 PWs)   bands (ev):

    -7.6823  14.5714  14.6473  14.7628  20.6410  20.8838  20.9006  30.0263

          k = 0.0333 0.0083 0.0083 (   966 PWs)   bands (ev):

    -7.7188  14.7703  14.7900  14.8204  20.6483  20.7107  20.7155  30.0105

          k = 0.0000 0.0000 0.0000 (   965 PWs)   bands (ev):

    -7.7309  14.8397  14.8397  14.8397  20.6508  20.6508  20.6508  30.0046

     Writing output data file diamond.save/

     init_run     :      0.18s CPU      0.19s WALL (       1 calls)
     electrons    :      6.84s CPU      3.64s WALL (       1 calls)

     Called by init_run:
     wfcinit      :      0.00s CPU      0.00s WALL (       1 calls)
     potinit      :      0.05s CPU      0.06s WALL (       1 calls)
     hinit0       :      0.12s CPU      0.12s WALL (       1 calls)

     Called by electrons:
     c_bands      :      6.83s CPU      3.64s WALL (       1 calls)
     v_of_rho     :      0.01s CPU      0.01s WALL (       1 calls)
     newd         :      0.01s CPU      0.00s WALL (       1 calls)
     PAW_pot      :      0.04s CPU      0.05s WALL (       1 calls)

     Called by c_bands:
     init_us_2    :      0.03s CPU      0.02s WALL (      91 calls)
     cegterg      :      5.52s CPU      2.92s WALL (      91 calls)

     Called by sum_band:

     Called by *egterg:
     h_psi        :      6.12s CPU      3.27s WALL (     550 calls)
     s_psi        :      0.05s CPU      0.02s WALL (     550 calls)
     g_psi        :      0.03s CPU      0.01s WALL (     368 calls)
     cdiaghg      :      0.13s CPU      0.07s WALL (     459 calls)

     Called by h_psi:
     h_psi:pot    :      6.10s CPU      3.26s WALL (     550 calls)
     h_psi:calbec :      0.06s CPU      0.03s WALL (     550 calls)
     vloc_psi     :      5.99s CPU      3.20s WALL (     550 calls)
     add_vuspsi   :      0.05s CPU      0.03s WALL (     550 calls)

     General routines
     calbec       :      0.06s CPU      0.03s WALL (     550 calls)
     fft          :      0.01s CPU      0.01s WALL (      12 calls)
     fftw         :      5.51s CPU      2.95s WALL (    8000 calls)
     davcio       :      0.02s CPU      0.01s WALL (     182 calls)

     Parallel routines

     PWSCF        :      7.31s CPU      4.10s WALL


   This run was terminated on:  14:58:51  12May2023            

=------------------------------------------------------------------------------=
   JOB DONE.
=------------------------------------------------------------------------------=
