
     Program PWSCF v.6.4.1 starts on 12May2023 at 14:54:38 

     This program is part of the open-source Quantum ESPRESSO suite
     for quantum simulation of materials; please cite

     Program PWSCF v.6.4.1 starts on 12May2023 at 14:54:38 

     This program is part of the open-source Quantum ESPRESSO suite
     for quantum simulation of materials; please cite
         "P. Giannozzi et al., J. Phys.:Condens. Matter 21 395502 (2009);
         "P. Giannozzi et al., J. Phys.:Condens. Matter 29 465901 (2017);
          URL http://www.quantum-espresso.org", 
     in publications or presentations arising from this work. More details at
     http://www.quantum-espresso.org/quote

     Parallel version (MPI), running on     1 processors

     MPI processes distributed on     1 nodes
         "P. Giannozzi et al., J. Phys.:Condens. Matter 21 395502 (2009);
         "P. Giannozzi et al., J. Phys.:Condens. Matter 29 465901 (2017);
          URL http://www.quantum-espresso.org", 
     in publications or presentations arising from this work. More details at
     http://www.quantum-espresso.org/quote

     Parallel version (MPI), running on     1 processors

     MPI processes distributed on     1 nodes
     Waiting for input...
     Waiting for input...
     Reading input from standard input

     Current dimensions of program PWSCF are:
     Max number of different atomic species (ntypx) = 10
     Max number of k-points (npk) =  40000
     Max angular momentum in pseudopotentials (lmaxx) =  3
               file C.pbe-n-kjpaw_psl.1.0.0.UPF: wavefunction(s)  2S 2P renormalized

     Subspace diagonalization in iterative solution of the eigenvalue problem:
     a serial algorithm will be used


     G-vector sticks info
     --------------------
     sticks:   dense  smooth     PW     G-vecs:    dense   smooth      PW
     Sum         535     535    163                 8099     8099    1411



     bravais-lattice index     =            2
     lattice parameter (alat)  =       6.5674  a.u.
     unit-cell volume          =      70.8142 (a.u.)^3
     number of atoms/cell      =            2
     number of atomic types    =            1
     number of electrons       =         8.00
     number of Kohn-Sham states=            4
     kinetic-energy cutoff     =      90.0000  Ry
     charge density cutoff     =     360.0000  Ry
     convergence threshold     =      1.0E-08
     mixing beta               =       0.2000
     number of iterations used =            8  plain     mixing
     Exchange-correlation      = SLA PW PBX PBC ( 1  4  3  4 0 0)

     celldm(1)=   6.567400  celldm(2)=   0.000000  celldm(3)=   0.000000
     celldm(4)=   0.000000  celldm(5)=   0.000000  celldm(6)=   0.000000

     crystal axes: (cart. coord. in units of alat)
               a(1) = (  -0.500000   0.000000   0.500000 )  
               a(2) = (   0.000000   0.500000   0.500000 )  
               a(3) = (  -0.500000   0.500000   0.000000 )  

     reciprocal axes: (cart. coord. in units 2 pi/alat)
               b(1) = ( -1.000000 -1.000000  1.000000 )  
               b(2) = (  1.000000  1.000000  1.000000 )  
               b(3) = ( -1.000000  1.000000 -1.000000 )  


     PseudoPot. # 1 for C  read from file:
     ../pseudo/C.pbe-n-kjpaw_psl.1.0.0.UPF
     MD5 check sum: 5f16ad9a65e90284d1d834d4ab3b0f7d
     Pseudo is Projector augmented-wave + core cor, Zval =  4.0
     Generated using "atomic" code by A. Dal Corso v.6.3
     Shape of augmentation charge: PSQ
     Using radial grid of 1073 points,  4 beta functions with: 
                l(1) =   0
                l(2) =   0
                l(3) =   1
                l(4) =   1
     Q(r) pseudized with 0 coefficients 


     atomic species   valence    mass     pseudopotential
        C              4.00    12.00000     C ( 1.00)

     48 Sym. Ops., with inversion, found (36 have fractional translation)



   Cartesian axes

     site n.     atom                  positions (alat units)
         1           C   tau(   1) = (  -0.1250000   0.1250000   0.1250000  )
         2           C   tau(   2) = (  -0.8750000   0.8750000   0.8750000  )

     number of k points=     8
                       cart. coord. in units 2pi/alat
        k(    1) = (   0.0000000   0.0000000   0.0000000), wk =   0.0312500
        k(    2) = (  -0.2500000   0.2500000  -0.2500000), wk =   0.2500000
        k(    3) = (   0.5000000  -0.5000000   0.5000000), wk =   0.1250000
        k(    4) = (   0.0000000   0.5000000   0.0000000), wk =   0.1875000
        k(    5) = (   0.7500000  -0.2500000   0.7500000), wk =   0.7500000
        k(    6) = (   0.5000000   0.0000000   0.5000000), wk =   0.3750000
        k(    7) = (   0.0000000  -1.0000000   0.0000000), wk =   0.0937500
        k(    8) = (  -0.5000000  -1.0000000   0.0000000), wk =   0.1875000

     Dense  grid:     8099 G-vectors     FFT dimensions: (  30,  30,  30)

     Estimated max dynamical RAM per process >      12.05 MB

     Check: negative core charge=   -0.000013

     Initial potential from superposition of free atoms

     starting charge    7.99992, renormalised to    8.00000
     Starting wfcs are    8 randomized atomic wfcs
     Checking if some PAW data can be deallocated... 

     total cpu time spent up to now is        0.5 secs

     Self-consistent Calculation

     iteration #  1     ecut=    90.00 Ry     beta= 0.20
     Davidson diagonalization with overlap
     ethr =  1.00E-04,  avg # of iterations =  3.9

     total cpu time spent up to now is        0.7 secs

     total energy              =     -36.87998127 Ry
     Harris-Foulkes estimate   =     -36.90873094 Ry
     estimated scf accuracy    <       0.14483646 Ry

     iteration #  2     ecut=    90.00 Ry     beta= 0.20
     Davidson diagonalization with overlap
     ethr =  1.81E-03,  avg # of iterations =  1.0

     total cpu time spent up to now is        0.9 secs

     total energy              =     -36.84158711 Ry
     Harris-Foulkes estimate   =     -36.88090581 Ry
     estimated scf accuracy    <       0.08160804 Ry

     iteration #  3     ecut=    90.00 Ry     beta= 0.20
     Davidson diagonalization with overlap
     ethr =  1.02E-03,  avg # of iterations =  1.6

     total cpu time spent up to now is        1.0 secs

     total energy              =     -36.84937219 Ry
     Harris-Foulkes estimate   =     -36.84938465 Ry
     estimated scf accuracy    <       0.00050378 Ry

     iteration #  4     ecut=    90.00 Ry     beta= 0.20
     Davidson diagonalization with overlap
     ethr =  6.30E-06,  avg # of iterations =  2.6

     total cpu time spent up to now is        1.2 secs

     total energy              =     -36.84971042 Ry
     Harris-Foulkes estimate   =     -36.84970299 Ry
     estimated scf accuracy    <       0.00003709 Ry

     iteration #  5     ecut=    90.00 Ry     beta= 0.20
     Davidson diagonalization with overlap
     ethr =  4.64E-07,  avg # of iterations =  1.9

     total cpu time spent up to now is        1.4 secs

     total energy              =     -36.84971550 Ry
     Harris-Foulkes estimate   =     -36.84971458 Ry
     estimated scf accuracy    <       0.00000182 Ry

     iteration #  6     ecut=    90.00 Ry     beta= 0.20
     Davidson diagonalization with overlap
     ethr =  2.27E-08,  avg # of iterations =  1.8

     total cpu time spent up to now is        1.6 secs

     total energy              =     -36.84971585 Ry
     Harris-Foulkes estimate   =     -36.84971569 Ry
     estimated scf accuracy    <       0.00000069 Ry

     iteration #  7     ecut=    90.00 Ry     beta= 0.20
     Davidson diagonalization with overlap
     ethr =  8.66E-09,  avg # of iterations =  2.0

     total cpu time spent up to now is        1.7 secs

     total energy              =     -36.84971596 Ry
     Harris-Foulkes estimate   =     -36.84971594 Ry
     estimated scf accuracy    <       0.00000002 Ry

     iteration #  8     ecut=    90.00 Ry     beta= 0.20
     Davidson diagonalization with overlap
     ethr =  2.32E-10,  avg # of iterations =  2.6

     total cpu time spent up to now is        1.9 secs

     End of self-consistent calculation

          k = 0.0000 0.0000 0.0000 (   965 PWs)   bands (ev):

    -7.7309  14.8396  14.8396  14.8396

          k =-0.2500 0.2500-0.2500 (  1013 PWs)   bands (ev):

    -5.9208   7.8541  12.9513  12.9513

          k = 0.5000-0.5000 0.5000 (  1008 PWs)   bands (ev):

    -1.4889   0.5505  11.8256  11.8256

          k = 0.0000 0.5000 0.0000 (  1022 PWs)   bands (ev):

    -5.3211  10.2229  10.3725  10.3725

          k = 0.7500-0.2500 0.7500 (  1027 PWs)   bands (ev):

    -1.3367   3.4537   7.6681   9.5701

          k = 0.5000 0.0000 0.5000 (  1019 PWs)   bands (ev):

    -3.0011   5.7233   6.6653  11.5882

          k = 0.0000-1.0000 0.0000 (  1034 PWs)   bands (ev):

     1.4895   1.4895   8.0402   8.0402

          k =-0.5000-1.0000 0.0000 (  1036 PWs)   bands (ev):

     2.4176   2.4176   5.8025   5.8025

     highest occupied level (ev):    14.8396

!    total energy              =     -36.84971597 Ry
     Harris-Foulkes estimate   =     -36.84971596 Ry
     estimated scf accuracy    <          6.3E-09 Ry

     total all-electron energy =      -152.377910 Ry

     The total energy is the sum of the following terms:

     one-electron contribution =       9.36624232 Ry
     hartree contribution      =       1.87747147 Ry
     xc contribution           =      -9.51853143 Ry
     ewald contribution        =     -26.24745522 Ry
     one-center paw contrib.   =     -12.32744311 Ry

     convergence has been achieved in   8 iterations

     Writing output data file diamond.save/

     init_run     :      0.29s CPU      0.26s WALL (       1 calls)
     electrons    :      2.69s CPU      1.41s WALL (       1 calls)

     Called by init_run:
     wfcinit      :      0.11s CPU      0.06s WALL (       1 calls)
     potinit      :      0.05s CPU      0.05s WALL (       1 calls)
     hinit0       :      0.12s CPU      0.12s WALL (       1 calls)

     Called by electrons:
     c_bands      :      1.18s CPU      0.63s WALL (       8 calls)
     sum_band     :      0.31s CPU      0.17s WALL (       8 calls)
     v_of_rho     :      0.21s CPU      0.12s WALL (       9 calls)
     newd         :      0.07s CPU      0.04s WALL (       9 calls)
     PAW_pot      :      0.93s CPU      0.50s WALL (       9 calls)
     mix_rho      :      0.02s CPU      0.01s WALL (       8 calls)

     Called by c_bands:
     init_us_2    :      0.04s CPU      0.02s WALL (     136 calls)
     cegterg      :      1.11s CPU      0.60s WALL (      64 calls)

     Called by sum_band:
     sum_band:bec :      0.00s CPU      0.00s WALL (      64 calls)
     addusdens    :      0.05s CPU      0.03s WALL (       8 calls)

     Called by *egterg:
     h_psi        :      1.14s CPU      0.61s WALL (     211 calls)
     s_psi        :      0.01s CPU      0.01s WALL (     211 calls)
     g_psi        :      0.00s CPU      0.00s WALL (     139 calls)
     cdiaghg      :      0.01s CPU      0.01s WALL (     203 calls)

     Called by h_psi:
     h_psi:pot    :      1.14s CPU      0.61s WALL (     211 calls)
     h_psi:calbec :      0.01s CPU      0.01s WALL (     211 calls)
     vloc_psi     :      1.11s CPU      0.60s WALL (     211 calls)
     add_vuspsi   :      0.01s CPU      0.01s WALL (     211 calls)

     General routines
     calbec       :      0.01s CPU      0.01s WALL (     275 calls)
     fft          :      0.15s CPU      0.09s WALL (      99 calls)
     ffts         :      0.01s CPU      0.01s WALL (       8 calls)
     fftw         :      1.18s CPU      0.64s WALL (    1792 calls)

     Parallel routines

     PWSCF        :      3.23s CPU      1.92s WALL


   This run was terminated on:  14:54:40  12May2023            

=------------------------------------------------------------------------------=
   JOB DONE.
=------------------------------------------------------------------------------=
