
     Program BANDS v.6.4.1 starts on 12May2023 at 15: 1:21 

     This program is part of the open-source Quantum ESPRESSO suite
     for quantum simulation of materials; please cite
         "P. Giannozzi et al., J. Phys.:Condens. Matter 21 395502 (2009);
         "P. Giannozzi et al., J. Phys.:Condens. Matter 29 465901 (2017);
          URL http://www.quantum-espresso.org", 
     in publications or presentations arising from this work. More details at
     http://www.quantum-espresso.org/quote

     Parallel version (MPI), running on     1 processors

     MPI processes distributed on     1 nodes

     Reading data from directory:
     /home/rr/repos/qe-tut/diamond-scf/diamond.save/

     IMPORTANT: XC functional enforced from input :
     Exchange-correlation      = PBE ( 1  4  3  4 0 0)
     Any further DFT definition will be discarded
     Please, verify this is what you really want

               file C.pbe-n-kjpaw_psl.1.0.0.UPF: wavefunction(s)  2S 2P renormalized

     G-vector sticks info
     --------------------
     sticks:   dense  smooth     PW     G-vecs:    dense   smooth      PW
     Sum         535     535    163                 8099     8099    1411


     Check: negative core charge=   -0.000013
     high-symmetry point:  0.5000 0.5000 0.5000   x coordinate   0.0000
     high-symmetry point:  0.0000 0.0000 0.0000   x coordinate   0.8660
     high-symmetry point:  1.0000 0.0000 0.0000   x coordinate   1.8660
     high-symmetry point:  1.0000 0.2500 0.2500   x coordinate   2.2196
     high-symmetry point:  0.0000 0.0000 0.0000   x coordinate   3.2802

     Plottable bands (eV) written to file diamond_bands.dat.gnu
     Bands written to file diamond_bands.dat

 **************************************************************************

                    xk=(   0.50000,   0.50000,   0.50000  )

     point group D_3d (-3m) 
     there are  6 classes
     the character table:

       E     2C3   3C2'  i     2S6   3s_d 
A_1g   1.00  1.00  1.00  1.00  1.00  1.00
A_2g   1.00  1.00 -1.00  1.00  1.00 -1.00
E_g    2.00 -1.00  0.00  2.00 -1.00  0.00
A_1u   1.00  1.00  1.00 -1.00 -1.00 -1.00
A_2u   1.00  1.00 -1.00 -1.00 -1.00  1.00
E_u    2.00 -1.00  0.00 -2.00  1.00  0.00

     the symmetry operations in each class and the name of the first element:

     E        1
                                                                 
     2C3      5    6
                                                                 
     3C2'     2    4    3
                                                                 
     i        7
                                                                 
     2S6     11   12
                                                                 
     3s_d     8   10    9
                                                                 

     Band symmetry, D_3d (-3m)  point group:

     e(  1 -  1) =     -1.48892  eV     1   --> A_1g L_1       
     e(  2 -  2) =      0.55053  eV     1   --> A_2u L_2'      
     e(  3 -  4) =     11.82565  eV     2   --> E_g  L_3       
     e(  5 -  6) =     23.63309  eV     2   --> E_u  L_3'      
     e(  7 -  7) =     24.78112  eV     1   --> A_2u L_2'      
     e(  8 -  8) =     31.23557  eV     1   --> A_1g L_1       

 **************************************************************************

 **************************************************************************

                    xk=(   0.47500,   0.47500,   0.47500  )

     point group C_3v (3m)  
     there are  3 classes
     the character table:

       E     2C3   3s_v 
A_1    1.00  1.00  1.00
A_2    1.00  1.00 -1.00
E      2.00 -1.00  0.00

     the symmetry operations in each class and the name of the first element:

     E        1
                                                                 
     2C3      2    3
                                                                 
     3s_v     4    5    6
                                                                 

     Band symmetry, C_3v (3m)   point group:

     e(  1 -  1) =     -1.69123  eV     1   --> A_1  L_1       
     e(  2 -  2) =      0.78292  eV     1   --> A_1  L_1       
     e(  3 -  4) =     11.83733  eV     2   --> E    L_3       
     e(  5 -  6) =     23.63294  eV     2   --> E    L_3       
     e(  7 -  7) =     24.77162  eV     1   --> A_1  L_1       
     e(  8 -  8) =     31.23372  eV     1   --> A_1  L_1       

 **************************************************************************

 **************************************************************************

                    xk=(   0.45000,   0.45000,   0.45000  )

     Band symmetry, C_3v (3m)   point group:

     e(  1 -  1) =     -2.14088  eV     1   --> A_1  L_1       
     e(  2 -  2) =      1.32266  eV     1   --> A_1  L_1       
     e(  3 -  4) =     11.87233  eV     2   --> E    L_3       
     e(  5 -  6) =     23.63162  eV     2   --> E    L_3       
     e(  7 -  7) =     24.74312  eV     1   --> A_1  L_1       
     e(  8 -  8) =     31.22747  eV     1   --> A_1  L_1       

 **************************************************************************

 **************************************************************************

                    xk=(   0.42500,   0.42500,   0.42500  )

     Band symmetry, C_3v (3m)   point group:

     e(  1 -  1) =     -2.66604  eV     1   --> A_1  L_1       
     e(  2 -  2) =      1.99747  eV     1   --> A_1  L_1       
     e(  3 -  4) =     11.93053  eV     2   --> E    L_3       
     e(  5 -  6) =     23.62645  eV     2   --> E    L_3       
     e(  7 -  7) =     24.69526  eV     1   --> A_1  L_1       
     e(  8 -  8) =     31.21492  eV     1   --> A_1  L_1       

 **************************************************************************

 **************************************************************************

                    xk=(   0.40000,   0.40000,   0.40000  )

     Band symmetry, C_3v (3m)   point group:

     e(  1 -  1) =     -3.20151  eV     1   --> A_1  L_1       
     e(  2 -  2) =      2.74140  eV     1   --> A_1  L_1       
     e(  3 -  4) =     12.01174  eV     2   --> E    L_3       
     e(  5 -  6) =     23.61311  eV     2   --> E    L_3       
     e(  7 -  7) =     24.62743  eV     1   --> A_1  L_1       
     e(  8 -  8) =     31.19327  eV     1   --> A_1  L_1       

 **************************************************************************

 **************************************************************************

                    xk=(   0.37500,   0.37500,   0.37500  )

     Band symmetry, C_3v (3m)   point group:

     e(  1 -  1) =     -3.72393  eV     1   --> A_1  L_1       
     e(  2 -  2) =      3.52998  eV     1   --> A_1  L_1       
     e(  3 -  4) =     12.11565  eV     2   --> E    L_3       
     e(  5 -  6) =     23.58582  eV     2   --> E    L_3       
     e(  7 -  7) =     24.53874  eV     1   --> A_1  L_1       
     e(  8 -  8) =     31.15937  eV     1   --> A_1  L_1       

 **************************************************************************

 **************************************************************************

                    xk=(   0.35000,   0.35000,   0.35000  )

     Band symmetry, C_3v (3m)   point group:

     e(  1 -  1) =     -4.22345  eV     1   --> A_1  L_1       
     e(  2 -  2) =      4.35187  eV     1   --> A_1  L_1       
     e(  3 -  4) =     12.24180  eV     2   --> E    L_3       
     e(  5 -  6) =     23.53774  eV     2   --> E    L_3       
     e(  7 -  7) =     24.42797  eV     1   --> A_1  L_1       
     e(  8 -  8) =     31.11052  eV     1   --> A_1  L_1       

 **************************************************************************

 **************************************************************************

                    xk=(   0.32500,   0.32500,   0.32500  )

     Band symmetry, C_3v (3m)   point group:

     e(  1 -  1) =     -4.69516  eV     1   --> A_1  L_1       
     e(  2 -  2) =      5.20026  eV     1   --> A_1  L_1       
     e(  3 -  4) =     12.38952  eV     2   --> E    L_3       
     e(  5 -  6) =     23.46164  eV     2   --> E    L_3       
     e(  7 -  7) =     24.29350  eV     1   --> A_1  L_1       
     e(  8 -  8) =     31.04513  eV     1   --> A_1  L_1       

 **************************************************************************

 **************************************************************************

                    xk=(   0.30000,   0.30000,   0.30000  )

     Band symmetry, C_3v (3m)   point group:

     e(  1 -  1) =     -5.13632  eV     1   --> A_1  L_1       
     e(  2 -  2) =      6.06997  eV     1   --> A_1  L_1       
     e(  3 -  4) =     12.55793  eV     2   --> E    L_3       
     e(  5 -  6) =     23.35082  eV     2   --> E    L_3       
     e(  7 -  7) =     24.13333  eV     1   --> A_1  L_1       
     e(  8 -  8) =     30.96335  eV     1   --> A_1  L_1       

 **************************************************************************

 **************************************************************************

                    xk=(   0.27500,   0.27500,   0.27500  )

     Band symmetry, C_3v (3m)   point group:

     e(  1 -  1) =     -5.54523  eV     1   --> A_1  L_1       
     e(  2 -  2) =      6.95625  eV     1   --> A_1  L_1       
     e(  3 -  4) =     12.74576  eV     2   --> E    L_3       
     e(  5 -  6) =     23.20015  eV     2   --> E    L_3       
     e(  7 -  7) =     23.94519  eV     1   --> A_1  L_1       
     e(  8 -  8) =     30.86720  eV     1   --> A_1  L_1       

 **************************************************************************

 **************************************************************************

                    xk=(   0.25000,   0.25000,   0.25000  )

     Band symmetry, C_3v (3m)   point group:

     e(  1 -  1) =     -5.92075  eV     1   --> A_1  L_1       
     e(  2 -  2) =      7.85415  eV     1   --> A_1  L_1       
     e(  3 -  4) =     12.95130  eV     2   --> E    L_3       
     e(  5 -  6) =     23.00731  eV     2   --> E    L_3       
     e(  7 -  7) =     23.72656  eV     1   --> A_1  L_1       
     e(  8 -  8) =     30.76024  eV     1   --> A_1  L_1       

 **************************************************************************

 **************************************************************************

                    xk=(   0.22500,   0.22500,   0.22500  )

     Band symmetry, C_3v (3m)   point group:

     e(  1 -  1) =     -6.26207  eV     1   --> A_1  L_1       
     e(  2 -  2) =      8.75805  eV     1   --> A_1  L_1       
     e(  3 -  4) =     13.17225  eV     2   --> E    L_3       
     e(  5 -  6) =     22.77350  eV     2   --> E    L_3       
     e(  7 -  7) =     23.47498  eV     1   --> A_1  L_1       
     e(  8 -  8) =     30.64711  eV     1   --> A_1  L_1       

 **************************************************************************

 **************************************************************************

                    xk=(   0.20000,   0.20000,   0.20000  )

     Band symmetry, C_3v (3m)   point group:

     e(  1 -  1) =     -6.56860  eV     1   --> A_1  L_1       
     e(  2 -  2) =      9.66123  eV     1   --> A_1  L_1       
     e(  3 -  4) =     13.40545  eV     2   --> E    L_3       
     e(  5 -  6) =     22.50385  eV     2   --> E    L_3       
     e(  7 -  7) =     23.18855  eV     1   --> A_1  L_1       
     e(  8 -  8) =     30.53277  eV     1   --> A_1  L_1       

 **************************************************************************

 **************************************************************************

                    xk=(   0.17500,   0.17500,   0.17500  )

     Band symmetry, C_3v (3m)   point group:

     e(  1 -  1) =     -6.83990  eV     1   --> A_1  L_1       
     e(  2 -  2) =     10.55530  eV     1   --> A_1  L_1       
     e(  3 -  4) =     13.64668  eV     2   --> E    L_3       
     e(  5 -  6) =     22.20726  eV     2   --> E    L_3       
     e(  7 -  7) =     22.86658  eV     1   --> A_1  L_1       
     e(  8 -  8) =     30.42197  eV     1   --> A_1  L_1       

 **************************************************************************

 **************************************************************************

                    xk=(   0.15000,   0.15000,   0.15000  )

     Band symmetry, C_3v (3m)   point group:

     e(  1 -  1) =     -7.07561  eV     1   --> A_1  L_1       
     e(  2 -  2) =     11.42939  eV     1   --> A_1  L_1       
     e(  3 -  4) =     13.89026  eV     2   --> E    L_3       
     e(  5 -  6) =     21.89586  eV     2   --> E    L_3       
     e(  7 -  7) =     22.51075  eV     1   --> A_1  L_1       
     e(  8 -  8) =     30.31891  eV     1   --> A_1  L_1       

 **************************************************************************

 **************************************************************************

                    xk=(   0.12500,   0.12500,   0.12500  )

     Band symmetry, C_3v (3m)   point group:

     e(  1 -  1) =     -7.27546  eV     1   --> A_1  L_1       
     e(  2 -  2) =     12.26877  eV     1   --> A_1  L_1       
     e(  3 -  4) =     14.12869  eV     2   --> E    L_3       
     e(  5 -  6) =     21.58448  eV     2   --> E    L_3       
     e(  7 -  7) =     22.12688  eV     1   --> A_1  L_1       
     e(  8 -  8) =     30.22702  eV     1   --> A_1  L_1       

 **************************************************************************

 **************************************************************************

                    xk=(   0.10000,   0.10000,   0.10000  )

     Band symmetry, C_3v (3m)   point group:

     e(  1 -  1) =     -7.43924  eV     1   --> A_1  L_1       
     e(  2 -  2) =     13.05273  eV     1   --> A_1  L_1       
     e(  3 -  4) =     14.35221  eV     2   --> E    L_3       
     e(  5 -  6) =     21.29010  eV     2   --> E    L_3       
     e(  7 -  7) =     21.72747  eV     1   --> A_1  L_1       
     e(  8 -  8) =     30.14894  eV     1   --> A_1  L_1       

 **************************************************************************

 **************************************************************************

                    xk=(   0.07500,   0.07500,   0.07500  )

     Band symmetry, C_3v (3m)   point group:

     e(  1 -  1) =     -7.56677  eV     1   --> A_1  L_1       
     e(  2 -  2) =     13.75125  eV     1   --> A_1  L_1       
     e(  3 -  4) =     14.54869  eV     2   --> E    L_3       
     e(  5 -  6) =     21.03131  eV     2   --> E    L_3       
     e(  7 -  7) =     21.33552  eV     1   --> A_1  L_1       
     e(  8 -  8) =     30.08658  eV     1   --> A_1  L_1       

 **************************************************************************

 **************************************************************************

                    xk=(   0.05000,   0.05000,   0.05000  )

     Band symmetry, C_3v (3m)   point group:

     e(  1 -  1) =     -7.65796  eV     1   --> A_1  L_1       
     e(  2 -  2) =     14.32075  eV     1   --> A_1  L_1       
     e(  3 -  4) =     14.70420  eV     2   --> E    L_3       
     e(  5 -  6) =     20.82739  eV     2   --> E    L_3       
     e(  7 -  7) =     20.98898  eV     1   --> A_1  L_1       
     e(  8 -  8) =     30.04125  eV     1   --> A_1  L_1       

 **************************************************************************

 **************************************************************************

                    xk=(   0.02500,   0.02500,   0.02500  )

     Band symmetry, C_3v (3m)   point group:

     e(  1 -  1) =     -7.71269  eV     1   --> A_1  L_1       
     e(  2 -  2) =     14.70324  eV     1   --> A_1  L_1       
     e(  3 -  4) =     14.80478  eV     2   --> E    L_3       
     e(  5 -  6) =     20.69617  eV     2   --> E    L_3       
     e(  7 -  7) =     20.74185  eV     1   --> A_1  L_1       
     e(  8 -  8) =     30.01377  eV     1   --> A_1  L_1       

 **************************************************************************

 **************************************************************************

                    xk=(   0.00000,   0.00000,   0.00000  )

     point group O_h (m-3m) 
     there are 10 classes
     the character table:

       E     8C3   3C2   6C4   6C2'  i     8S6   3s_h  6S4   6s_d 
A_1g   1.00  1.00  1.00  1.00  1.00  1.00  1.00  1.00  1.00  1.00
A_2g   1.00  1.00  1.00 -1.00 -1.00  1.00  1.00  1.00 -1.00 -1.00
E_g    2.00 -1.00  2.00  0.00  0.00  2.00 -1.00  2.00  0.00  0.00
T_1g   3.00  0.00 -1.00  1.00 -1.00  3.00  0.00 -1.00  1.00 -1.00
T_2g   3.00  0.00 -1.00 -1.00  1.00  3.00  0.00 -1.00 -1.00  1.00
A_1u   1.00  1.00  1.00  1.00  1.00 -1.00 -1.00 -1.00 -1.00 -1.00
A_2u   1.00  1.00  1.00 -1.00 -1.00 -1.00 -1.00 -1.00  1.00  1.00
E_u    2.00 -1.00  2.00  0.00  0.00 -2.00  1.00 -2.00  0.00  0.00
T_1u   3.00  0.00 -1.00  1.00 -1.00 -3.00  0.00  1.00 -1.00  1.00
T_2u   3.00  0.00 -1.00 -1.00  1.00 -3.00  0.00  1.00  1.00 -1.00

     the symmetry operations in each class and the name of the first element:

     E        1
                                                                 
     8C3     17   19   20   18   24   21   22   23
                                                                 
     3C2      2    4    3
                                                                 
     6C4      7    8   15   16   12   11
                                                                 
     6C2'     5    6   14   13   10    9
                                                                 
     i       25
                                                                 
     8S6     41   43   44   42   48   45   46   47
                                                                 
     3s_h    26   28   27
                                                                 
     6S4     31   32   39   40   36   35
                                                                 
     6s_d    29   30   38   37   34   33
                                                                 

     Band symmetry, O_h (m-3m)  point group:

     e(  1 -  1) =     -7.73094  eV     1   --> A_1g G_1   G_1+
     e(  2 -  4) =     14.83968  eV     3   --> T_2g G_25' G_5+
     e(  5 -  7) =     20.65080  eV     3   --> T_1u G_15  G_4-
     e(  8 -  8) =     30.00458  eV     1   --> A_2u G_2'  G_2-

 **************************************************************************

 **************************************************************************

                    xk=(   0.03333,   0.00000,   0.00000  )

     point group C_4v (4mm) 
     there are  5 classes
     the character table:

       E     2C4   C2    2s_v  2s_d 
A_1    1.00  1.00  1.00  1.00  1.00
A_2    1.00  1.00  1.00 -1.00 -1.00
B_1    1.00 -1.00  1.00  1.00 -1.00
B_2    1.00 -1.00  1.00 -1.00  1.00
E      2.00  0.00 -2.00  0.00  0.00

     the symmetry operations in each class and the name of the first element:

     E        1
                                                                 
     2C4      3    4
                                                                 
     C2       2
                                                                 
     2s_v     5    6
                                                                 
     2s_d     7    8
                                                                 

     Band symmetry, C_4v (4mm)  point group:

     e(  1 -  1) =     -7.72012  eV     1   --> A_1  G_1 D_1   
     e(  2 -  3) =     14.79080  eV     2   --> E    G_5 D_5   
     e(  4 -  4) =     14.81436  eV     1   --> B_2  G_4 D_2'  
     e(  5 -  5) =     20.64243  eV     1   --> A_1  G_1 D_1   
     e(  6 -  7) =     20.70933  eV     2   --> E    G_5 D_5   
     e(  8 -  8) =     30.00984  eV     1   --> B_2  G_4 D_2'  

 **************************************************************************

 **************************************************************************

                    xk=(   0.06667,   0.00000,   0.00000  )

     Band symmetry, C_4v (4mm)  point group:

     e(  1 -  1) =     -7.68768  eV     1   --> A_1  G_1 D_1   
     e(  2 -  3) =     14.65006  eV     2   --> E    G_5 D_5   
     e(  4 -  4) =     14.73885  eV     1   --> B_2  G_4 D_2'  
     e(  5 -  5) =     20.61757  eV     1   --> A_1  G_1 D_1   
     e(  6 -  7) =     20.87898  eV     2   --> E    G_5 D_5   
     e(  8 -  8) =     30.02313  eV     1   --> B_2  G_4 D_2'  

 **************************************************************************

 **************************************************************************

                    xk=(   0.10000,   0.00000,   0.00000  )

     Band symmetry, C_4v (4mm)  point group:

     e(  1 -  1) =     -7.63363  eV     1   --> A_1  G_1 D_1   
     e(  2 -  3) =     14.43248  eV     2   --> E    G_5 D_5   
     e(  4 -  4) =     14.61438  eV     1   --> B_2  G_4 D_2'  
     e(  5 -  5) =     20.57694  eV     1   --> A_1  G_1 D_1   
     e(  6 -  7) =     21.14463  eV     2   --> E    G_5 D_5   
     e(  8 -  8) =     30.03673  eV     1   --> B_2  G_4 D_2'  

 **************************************************************************

 **************************************************************************

                    xk=(   0.13333,   0.00000,   0.00000  )

     Band symmetry, C_4v (4mm)  point group:

     e(  1 -  1) =     -7.55799  eV     1   --> A_1  G_1 D_1   
     e(  2 -  3) =     14.15654  eV     2   --> E    G_5 D_5   
     e(  4 -  4) =     14.44291  eV     1   --> B_2  G_4 D_2'  
     e(  5 -  5) =     20.52166  eV     1   --> A_1  G_1 D_1   
     e(  6 -  7) =     21.48763  eV     2   --> E    G_5 D_5   
     e(  8 -  8) =     30.03750  eV     1   --> B_2  G_4 D_2'  

 **************************************************************************

 **************************************************************************

                    xk=(   0.16667,   0.00000,   0.00000  )

     Band symmetry, C_4v (4mm)  point group:

     e(  1 -  1) =     -7.46080  eV     1   --> A_1  G_1 D_1   
     e(  2 -  3) =     13.83969  eV     2   --> E    G_5 D_5   
     e(  4 -  4) =     14.22692  eV     1   --> B_2  G_4 D_2'  
     e(  5 -  5) =     20.45326  eV     1   --> A_1  G_1 D_1   
     e(  6 -  7) =     21.89032  eV     2   --> E    G_5 D_5   
     e(  8 -  8) =     30.00632  eV     1   --> B_2  G_4 D_2'  

 **************************************************************************

 **************************************************************************

                    xk=(   0.20000,   0.00000,   0.00000  )

     Band symmetry, C_4v (4mm)  point group:

     e(  1 -  1) =     -7.34210  eV     1   --> A_1  G_1 D_1   
     e(  2 -  3) =     13.49626  eV     2   --> E    G_5 D_5   
     e(  4 -  4) =     13.96920  eV     1   --> B_2  G_4 D_2'  
     e(  5 -  5) =     20.37350  eV     1   --> A_1  G_1 D_1   
     e(  6 -  7) =     22.33808  eV     2   --> E    G_5 D_5   
     e(  8 -  8) =     29.91886  eV     1   --> B_2  G_4 D_2'  

 **************************************************************************

 **************************************************************************

                    xk=(   0.23333,   0.00000,   0.00000  )

     Band symmetry, C_4v (4mm)  point group:

     e(  1 -  1) =     -7.20197  eV     1   --> A_1  G_1 D_1   
     e(  2 -  3) =     13.13730  eV     2   --> E    G_5 D_5   
     e(  4 -  4) =     13.67268  eV     1   --> B_2  G_4 D_2'  
     e(  5 -  5) =     20.28437  eV     1   --> A_1  G_1 D_1   
     e(  6 -  7) =     22.81952  eV     2   --> E    G_5 D_5   
     e(  8 -  8) =     29.74897  eV     1   --> B_2  G_4 D_2'  

 **************************************************************************

 **************************************************************************

                    xk=(   0.26667,   0.00000,   0.00000  )

     Band symmetry, C_4v (4mm)  point group:

     e(  1 -  1) =     -7.04047  eV     1   --> A_1  G_1 D_1   
     e(  2 -  3) =     12.77107  eV     2   --> E    G_5 D_5   
     e(  4 -  4) =     13.34032  eV     1   --> B_2  G_4 D_2'  
     e(  5 -  5) =     20.18797  eV     1   --> A_1  G_1 D_1   
     e(  6 -  7) =     23.32602  eV     2   --> E    G_5 D_5   
     e(  8 -  8) =     29.47600  eV     1   --> B_2  G_4 D_2'  

 **************************************************************************

 **************************************************************************

                    xk=(   0.30000,   0.00000,   0.00000  )

     Band symmetry, C_4v (4mm)  point group:

     e(  1 -  1) =     -6.85769  eV     1   --> A_1  G_1 D_1   
     e(  2 -  3) =     12.40373  eV     2   --> E    G_5 D_5   
     e(  4 -  4) =     12.97491  eV     1   --> B_2  G_4 D_2'  
     e(  5 -  5) =     20.08644  eV     1   --> A_1  G_1 D_1   
     e(  6 -  7) =     23.85099  eV     2   --> E    G_5 D_5   
     e(  8 -  8) =     29.09364  eV     1   --> B_2  G_4 D_2'  

 **************************************************************************

 **************************************************************************

                    xk=(   0.33333,   0.00000,   0.00000  )

     Band symmetry, C_4v (4mm)  point group:

     e(  1 -  1) =     -6.65373  eV     1   --> A_1  G_1 D_1   
     e(  2 -  3) =     12.03989  eV     2   --> E    G_5 D_5   
     e(  4 -  4) =     12.57908  eV     1   --> B_2  G_4 D_2'  
     e(  5 -  5) =     19.98191  eV     1   --> A_1  G_1 D_1   
     e(  6 -  7) =     24.38933  eV     2   --> E    G_5 D_5   
     e(  8 -  8) =     28.61330  eV     1   --> B_2  G_4 D_2'  

 **************************************************************************

 **************************************************************************

                    xk=(   0.36667,   0.00000,   0.00000  )

     Band symmetry, C_4v (4mm)  point group:

     e(  1 -  1) =     -6.42872  eV     1   --> A_1  G_1 D_1   
     e(  2 -  3) =     11.68307  eV     2   --> E    G_5 D_5   
     e(  4 -  4) =     12.15528  eV     1   --> B_2  G_4 D_2'  
     e(  5 -  5) =     19.87644  eV     1   --> A_1  G_1 D_1   
     e(  6 -  7) =     24.93702  eV     2   --> E    G_5 D_5   
     e(  8 -  8) =     28.05880  eV     1   --> B_2  G_4 D_2'  

 **************************************************************************

 **************************************************************************

                    xk=(   0.40000,   0.00000,   0.00000  )

     Band symmetry, C_4v (4mm)  point group:

     e(  1 -  1) =     -6.18277  eV     1   --> A_1  G_1 D_1   
     e(  2 -  3) =     11.33599  eV     2   --> E    G_5 D_5   
     e(  4 -  4) =     11.70573  eV     1   --> B_2  G_4 D_2'  
     e(  5 -  5) =     19.77204  eV     1   --> A_1  G_1 D_1   
     e(  6 -  7) =     25.49073  eV     2   --> E    G_5 D_5   
     e(  8 -  8) =     27.45705  eV     1   --> B_2  G_4 D_2'  

 **************************************************************************

 **************************************************************************

                    xk=(   0.43333,   0.00000,   0.00000  )

     Band symmetry, C_4v (4mm)  point group:

     e(  1 -  1) =     -5.91606  eV     1   --> A_1  G_1 D_1   
     e(  2 -  3) =     11.00079  eV     2   --> E    G_5 D_5   
     e(  4 -  4) =     11.23252  eV     1   --> B_2  G_4 D_2'  
     e(  5 -  5) =     19.67057  eV     1   --> A_1  G_1 D_1   
     e(  6 -  7) =     26.04764  eV     2   --> E    G_5 D_5   
     e(  8 -  8) =     26.83191  eV     1   --> B_2  G_4 D_2'  

 **************************************************************************

 **************************************************************************

                    xk=(   0.46667,   0.00000,   0.00000  )

     Band symmetry, C_4v (4mm)  point group:

     e(  1 -  1) =     -5.62876  eV     1   --> A_1  G_1 D_1   
     e(  2 -  3) =     10.67917  eV     2   --> E    G_5 D_5   
     e(  4 -  4) =     10.73762  eV     1   --> B_2  G_4 D_2'  
     e(  5 -  5) =     19.57381  eV     1   --> A_1  G_1 D_1   
     e(  6 -  6) =     26.20192  eV     1   --> B_2  G_4 D_2'  
     e(  7 -  8) =     26.60524  eV     2   --> E    G_5 D_5   

 **************************************************************************

 **************************************************************************

                    xk=(   0.50000,   0.00000,   0.00000  )

     Band symmetry, C_4v (4mm)  point group:

     e(  1 -  1) =     -5.32108  eV     1   --> A_1  G_1 D_1   
     e(  2 -  2) =     10.22295  eV     1   --> B_2  G_4 D_2'  
     e(  3 -  4) =     10.37252  eV     2   --> E    G_5 D_5   
     e(  5 -  5) =     19.48340  eV     1   --> A_1  G_1 D_1   
     e(  6 -  6) =     25.58052  eV     1   --> B_2  G_4 D_2'  
     e(  7 -  8) =     27.16118  eV     2   --> E    G_5 D_5   

 **************************************************************************

 **************************************************************************

                    xk=(   0.53333,   0.00000,   0.00000  )

     Band symmetry, C_4v (4mm)  point group:

     e(  1 -  1) =     -4.99322  eV     1   --> A_1  G_1 D_1   
     e(  2 -  2) =      9.69041  eV     1   --> B_2  G_4 D_2'  
     e(  3 -  4) =     10.08198  eV     2   --> E    G_5 D_5   
     e(  5 -  5) =     19.40088  eV     1   --> A_1  G_1 D_1   
     e(  6 -  6) =     24.97722  eV     1   --> B_2  G_4 D_2'  
     e(  7 -  8) =     27.71313  eV     2   --> E    G_5 D_5   

 **************************************************************************

 **************************************************************************

                    xk=(   0.56667,   0.00000,   0.00000  )

     Band symmetry, C_4v (4mm)  point group:

     e(  1 -  1) =     -4.64546  eV     1   --> A_1  G_1 D_1   
     e(  2 -  2) =      9.14193  eV     1   --> B_2  G_4 D_2'  
     e(  3 -  4) =      9.80848  eV     2   --> E    G_5 D_5   
     e(  5 -  5) =     19.32770  eV     1   --> A_1  G_1 D_1   
     e(  6 -  6) =     24.39841  eV     1   --> B_2  G_4 D_2'  
     e(  7 -  8) =     28.25867  eV     2   --> E    G_5 D_5   

 **************************************************************************

 **************************************************************************

                    xk=(   0.60000,   0.00000,   0.00000  )

     Band symmetry, C_4v (4mm)  point group:

     e(  1 -  1) =     -4.27809  eV     1   --> A_1  G_1 D_1   
     e(  2 -  2) =      8.57948  eV     1   --> B_2  G_4 D_2'  
     e(  3 -  4) =      9.55281  eV     2   --> E    G_5 D_5   
     e(  5 -  5) =     19.26519  eV     1   --> A_1  G_1 D_1   
     e(  6 -  6) =     23.84842  eV     1   --> B_2  G_4 D_2'  
     e(  7 -  8) =     28.79518  eV     2   --> E    G_5 D_5   

 **************************************************************************

 **************************************************************************

                    xk=(   0.63333,   0.00000,   0.00000  )

     Band symmetry, C_4v (4mm)  point group:

     e(  1 -  1) =     -3.89142  eV     1   --> A_1  G_1 D_1   
     e(  2 -  2) =      8.00509  eV     1   --> B_2  G_4 D_2'  
     e(  3 -  4) =      9.31564  eV     2   --> E    G_5 D_5   
     e(  5 -  5) =     19.21460  eV     1   --> A_1  G_1 D_1   
     e(  6 -  6) =     23.32994  eV     1   --> B_2  G_4 D_2'  
     e(  7 -  8) =     29.31971  eV     2   --> E    G_5 D_5   

 **************************************************************************

 **************************************************************************

                    xk=(   0.66667,   0.00000,   0.00000  )

     Band symmetry, C_4v (4mm)  point group:

     e(  1 -  1) =     -3.48584  eV     1   --> A_1  G_1 D_1   
     e(  2 -  2) =      7.42084  eV     1   --> B_2  G_4 D_2'  
     e(  3 -  4) =      9.09753  eV     2   --> E    G_5 D_5   
     e(  5 -  5) =     19.17713  eV     1   --> A_1  G_1 D_1   
     e(  6 -  6) =     22.84453  eV     1   --> B_2  G_4 D_2'  
     e(  7 -  8) =     29.82885  eV     2   --> E    G_5 D_5   

 **************************************************************************

 **************************************************************************

                    xk=(   0.70000,   0.00000,   0.00000  )

     Band symmetry, C_4v (4mm)  point group:

     e(  1 -  1) =     -3.06176  eV     1   --> A_1  G_1 D_1   
     e(  2 -  2) =      6.82885  eV     1   --> B_2  G_4 D_2'  
     e(  3 -  4) =      8.89896  eV     2   --> E    G_5 D_5   
     e(  5 -  5) =     19.15392  eV     1   --> A_1  G_1 D_1   
     e(  6 -  6) =     22.39291  eV     1   --> B_2  G_4 D_2'  
     e(  7 -  8) =     30.31862  eV     2   --> E    G_5 D_5   

 **************************************************************************

 **************************************************************************

                    xk=(   0.73333,   0.00000,   0.00000  )

     Band symmetry, C_4v (4mm)  point group:

     e(  1 -  1) =     -2.61963  eV     1   --> A_1  G_1 D_1   
     e(  2 -  2) =      6.23126  eV     1   --> B_2  G_4 D_2'  
     e(  3 -  4) =      8.72033  eV     2   --> E    G_5 D_5   
     e(  5 -  5) =     19.14604  eV     1   --> A_1  G_1 D_1   
     e(  6 -  6) =     21.97514  eV     1   --> B_2  G_4 D_2'  
     e(  7 -  8) =     30.78435  eV     2   --> E    G_5 D_5   

 **************************************************************************

 **************************************************************************

                    xk=(   0.76667,   0.00000,   0.00000  )

     Band symmetry, C_4v (4mm)  point group:

     e(  1 -  1) =     -2.15998  eV     1   --> A_1  G_1 D_1   
     e(  2 -  2) =      5.63018  eV     1   --> B_2  G_4 D_2'  
     e(  3 -  4) =      8.56199  eV     2   --> E    G_5 D_5   
     e(  5 -  5) =     19.15456  eV     1   --> A_1  G_1 D_1   
     e(  6 -  6) =     21.59085  eV     1   --> B_2  G_4 D_2'  
     e(  7 -  8) =     31.22059  eV     2   --> E    G_5 D_5   

 **************************************************************************

 **************************************************************************

                    xk=(   0.80000,   0.00000,   0.00000  )

     Band symmetry, C_4v (4mm)  point group:

     e(  1 -  1) =     -1.68339  eV     1   --> A_1  G_1 D_1   
     e(  2 -  2) =      5.02769  eV     1   --> B_2  G_4 D_2'  
     e(  3 -  4) =      8.42422  eV     2   --> E    G_5 D_5   
     e(  5 -  5) =     19.18050  eV     1   --> A_1  G_1 D_1   
     e(  6 -  6) =     21.23935  eV     1   --> B_2  G_4 D_2'  
     e(  7 -  8) =     31.62109  eV     2   --> E    G_5 D_5   

 **************************************************************************

 **************************************************************************

                    xk=(   0.83333,   0.00000,   0.00000  )

     Band symmetry, C_4v (4mm)  point group:

     e(  1 -  1) =     -1.19051  eV     1   --> A_1  G_1 D_1   
     e(  2 -  2) =      4.42583  eV     1   --> B_2  G_4 D_2'  
     e(  3 -  4) =      8.30726  eV     2   --> E    G_5 D_5   
     e(  5 -  5) =     19.22492  eV     1   --> A_1  G_1 D_1   
     e(  6 -  6) =     20.91971  eV     1   --> B_2  G_4 D_2'  
     e(  7 -  8) =     31.97887  eV     2   --> E    G_5 D_5   

 **************************************************************************

 **************************************************************************

                    xk=(   0.86667,   0.00000,   0.00000  )

     Band symmetry, C_4v (4mm)  point group:

     e(  1 -  1) =     -0.68209  eV     1   --> A_1  G_1 D_1   
     e(  2 -  2) =      3.82651  eV     1   --> B_2  G_4 D_2'  
     e(  3 -  4) =      8.21132  eV     2   --> E    G_5 D_5   
     e(  5 -  5) =     19.28880  eV     1   --> A_1  G_1 D_1   
     e(  6 -  6) =     20.63090  eV     1   --> B_2  G_4 D_2'  
     e(  7 -  8) =     32.28638  eV     2   --> E    G_5 D_5   

 **************************************************************************

 **************************************************************************

                    xk=(   0.90000,   0.00000,   0.00000  )

     Band symmetry, C_4v (4mm)  point group:

     e(  1 -  1) =     -0.15892  eV     1   --> A_1  G_1 D_1   
     e(  2 -  2) =      3.23156  eV     1   --> B_2  G_4 D_2'  
     e(  3 -  4) =      8.13654  eV     2   --> E    G_5 D_5   
     e(  5 -  5) =     19.37322  eV     1   --> A_1  G_1 D_1   
     e(  6 -  6) =     20.37173  eV     1   --> B_2  G_4 D_2'  
     e(  7 -  8) =     32.53597  eV     2   --> E    G_5 D_5   

 **************************************************************************

 **************************************************************************

                    xk=(   0.93333,   0.00000,   0.00000  )

     Band symmetry, C_4v (4mm)  point group:

     e(  1 -  1) =      0.37808  eV     1   --> A_1  G_1 D_1   
     e(  2 -  2) =      2.64269  eV     1   --> B_2  G_4 D_2'  
     e(  3 -  4) =      8.08304  eV     2   --> E    G_5 D_5   
     e(  5 -  5) =     19.47921  eV     1   --> A_1  G_1 D_1   
     e(  6 -  6) =     20.14104  eV     1   --> B_2  G_4 D_2'  
     e(  7 -  8) =     32.72043  eV     2   --> E    G_5 D_5   

 **************************************************************************

 **************************************************************************

                    xk=(   0.96667,   0.00000,   0.00000  )

     Band symmetry, C_4v (4mm)  point group:

     e(  1 -  1) =      0.92791  eV     1   --> A_1  G_1 D_1   
     e(  2 -  2) =      2.06150  eV     1   --> B_2  G_4 D_2'  
     e(  3 -  4) =      8.05091  eV     2   --> E    G_5 D_5   
     e(  5 -  5) =     19.60786  eV     1   --> A_1  G_1 D_1   
     e(  6 -  6) =     19.93762  eV     1   --> B_2  G_4 D_2'  
     e(  7 -  8) =     32.83379  eV     2   --> E    G_5 D_5   

 **************************************************************************

 **************************************************************************

                    xk=(   1.00000,   0.00000,   0.00000  )

     zone border point and non-symmorphic group 
     symmetry decomposition not available

 **************************************************************************

 **************************************************************************

                    xk=(   1.00000,   0.02500,   0.02500  )

     point group C_2v (mm2) 
     there are  4 classes
     the character table:

       E     C2    s_v   s_v' 
A_1    1.00  1.00  1.00  1.00
A_2    1.00  1.00 -1.00 -1.00
B_1    1.00 -1.00  1.00 -1.00
B_2    1.00 -1.00 -1.00  1.00

     the symmetry operations in each class and the name of the first element:

     E        1
                                                                 
     C2       2
                                                                 
     s_v      4
                                                                 
     s_v'     3
                                                                 

     Band symmetry, C_2v (mm2)  point group:

     e(  1 -  1) =      1.49540  eV     1   --> B_1  D_3  S_3  
     e(  2 -  2) =      1.50026  eV     1   --> A_1  D_1  S_1  
     e(  3 -  3) =      7.97354  eV     1   --> B_1  D_3  S_3  
     e(  4 -  4) =      8.05059  eV     1   --> B_2  D_4  S_4  
     e(  5 -  5) =     19.77003  eV     1   --> A_1  D_1  S_1  
     e(  6 -  6) =     19.85245  eV     1   --> B_1  D_3  S_3  
     e(  7 -  7) =     32.83949  eV     1   --> A_2  D_2  S_2  
     e(  8 -  8) =     32.85775  eV     1   --> A_1  D_1  S_1  

 **************************************************************************

 **************************************************************************

                    xk=(   1.00000,   0.05000,   0.05000  )

     Band symmetry, C_2v (mm2)  point group:

     e(  1 -  1) =      1.51274  eV     1   --> B_1  D_3  S_3  
     e(  2 -  2) =      1.53263  eV     1   --> A_1  D_1  S_1  
     e(  3 -  3) =      7.78069  eV     1   --> B_1  D_3  S_3  
     e(  4 -  4) =      8.08177  eV     1   --> B_2  D_4  S_4  
     e(  5 -  5) =     19.79926  eV     1   --> A_1  D_1  S_1  
     e(  6 -  6) =     20.12221  eV     1   --> B_1  D_3  S_3  
     e(  7 -  7) =     32.74262  eV     1   --> A_2  D_2  S_2  
     e(  8 -  8) =     32.81533  eV     1   --> A_1  D_1  S_1  

 **************************************************************************

 **************************************************************************

                    xk=(   1.00000,   0.07500,   0.07500  )

     Band symmetry, C_2v (mm2)  point group:

     e(  1 -  1) =      1.53993  eV     1   --> B_1  D_3  S_3  
     e(  2 -  2) =      1.58657  eV     1   --> A_1  D_1  S_1  
     e(  3 -  3) =      7.48061  eV     1   --> B_1  D_3  S_3  
     e(  4 -  4) =      8.13360  eV     1   --> B_2  D_4  S_4  
     e(  5 -  5) =     19.84792  eV     1   --> A_1  D_1  S_1  
     e(  6 -  6) =     20.55162  eV     1   --> B_1  D_3  S_3  
     e(  7 -  7) =     32.58379  eV     1   --> A_2  D_2  S_2  
     e(  8 -  8) =     32.74624  eV     1   --> A_1  D_1  S_1  

 **************************************************************************

 **************************************************************************

                    xk=(   1.00000,   0.10000,   0.10000  )

     Band symmetry, C_2v (mm2)  point group:

     e(  1 -  1) =      1.57406  eV     1   --> B_1  D_3  S_3  
     e(  2 -  2) =      1.66205  eV     1   --> A_1  D_1  S_1  
     e(  3 -  3) =      7.09915  eV     1   --> B_1  D_3  S_3  
     e(  4 -  4) =      8.20588  eV     1   --> B_2  D_4  S_4  
     e(  5 -  5) =     19.91592  eV     1   --> A_1  D_1  S_1  
     e(  6 -  6) =     21.11689  eV     1   --> B_1  D_3  S_3  
     e(  7 -  7) =     32.36693  eV     1   --> A_2  D_2  S_2  
     e(  8 -  8) =     32.65263  eV     1   --> A_1  D_1  S_1  

 **************************************************************************

 **************************************************************************

                    xk=(   1.00000,   0.12500,   0.12500  )

     Band symmetry, C_2v (mm2)  point group:

     e(  1 -  1) =      1.61027  eV     1   --> B_1  D_3  S_3  
     e(  2 -  2) =      1.75902  eV     1   --> A_1  D_1  S_1  
     e(  3 -  3) =      6.66447  eV     1   --> B_1  D_3  S_3  
     e(  4 -  4) =      8.29832  eV     1   --> B_2  D_4  S_4  
     e(  5 -  5) =     20.00314  eV     1   --> A_1  D_1  S_1  
     e(  6 -  6) =     21.79343  eV     1   --> B_1  D_3  S_3  
     e(  7 -  7) =     32.09689  eV     1   --> A_2  D_2  S_2  
     e(  8 -  8) =     32.53712  eV     1   --> A_1  D_1  S_1  

 **************************************************************************

 **************************************************************************

                    xk=(   1.00000,   0.15000,   0.15000  )

     Band symmetry, C_2v (mm2)  point group:

     e(  1 -  1) =      1.64076  eV     1   --> B_1  D_3  S_3  
     e(  2 -  2) =      1.87744  eV     1   --> A_1  D_1  S_1  
     e(  3 -  3) =      6.20497  eV     1   --> B_1  D_3  S_3  
     e(  4 -  4) =      8.41055  eV     1   --> B_2  D_4  S_4  
     e(  5 -  5) =     20.10940  eV     1   --> A_1  D_1  S_1  
     e(  6 -  6) =     22.55888  eV     1   --> B_1  D_3  S_3  
     e(  7 -  7) =     31.77935  eV     1   --> A_2  D_2  S_2  
     e(  8 -  8) =     32.40265  eV     1   --> A_1  D_1  S_1  

 **************************************************************************

 **************************************************************************

                    xk=(   1.00000,   0.17500,   0.17500  )

     Band symmetry, C_2v (mm2)  point group:

     e(  1 -  1) =      1.65338  eV     1   --> B_1  D_3  S_3  
     e(  2 -  2) =      2.01725  eV     1   --> A_1  D_1  S_1  
     e(  3 -  3) =      5.74968  eV     1   --> B_1  D_3  S_3  
     e(  4 -  4) =      8.54210  eV     1   --> B_2  D_4  S_4  
     e(  5 -  5) =     20.23446  eV     1   --> A_1  D_1  S_1  
     e(  6 -  6) =     23.39405  eV     1   --> B_1  D_3  S_3  
     e(  7 -  7) =     31.42041  eV     1   --> A_2  D_2  S_2  
     e(  8 -  8) =     32.25216  eV     1   --> A_1  D_1  S_1  

 **************************************************************************

 **************************************************************************

                    xk=(   1.00000,   0.20000,   0.20000  )

     Band symmetry, C_2v (mm2)  point group:

     e(  1 -  1) =      1.62998  eV     1   --> B_1  D_3  S_3  
     e(  2 -  2) =      2.17836  eV     1   --> A_1  D_1  S_1  
     e(  3 -  3) =      5.32993  eV     1   --> B_1  D_3  S_3  
     e(  4 -  4) =      8.69241  eV     1   --> B_2  D_4  S_4  
     e(  5 -  5) =     20.37800  eV     1   --> A_1  D_1  S_1  
     e(  6 -  6) =     24.28264  eV     1   --> B_1  D_3  S_3  
     e(  7 -  7) =     31.02629  eV     1   --> A_2  D_2  S_2  
     e(  8 -  8) =     32.08852  eV     1   --> A_1  D_1  S_1  

 **************************************************************************

 **************************************************************************

                    xk=(   1.00000,   0.22500,   0.22500  )

     Band symmetry, C_2v (mm2)  point group:

     e(  1 -  1) =      1.54656  eV     1   --> B_1  D_3  S_3  
     e(  2 -  2) =      2.36070  eV     1   --> A_1  D_1  S_1  
     e(  3 -  3) =      4.97977  eV     1   --> B_1  D_3  S_3  
     e(  4 -  4) =      8.86082  eV     1   --> B_2  D_4  S_4  
     e(  5 -  5) =     20.53961  eV     1   --> A_1  D_1  S_1  
     e(  6 -  6) =     25.21041  eV     1   --> B_1  D_3  S_3  
     e(  7 -  7) =     30.60315  eV     1   --> A_2  D_2  S_2  
     e(  8 -  8) =     31.91443  eV     1   --> A_1  D_1  S_1  

 **************************************************************************

 **************************************************************************

                    xk=(   1.00000,   0.25000,   0.25000  )

     Band symmetry, C_2v (mm2)  point group:

     e(  1 -  1) =      1.37896  eV     1   --> B_1  D_3  S_3  
     e(  2 -  2) =      2.56414  eV     1   --> A_1  D_1  S_1  
     e(  3 -  3) =      4.73101  eV     1   --> B_1  D_3  S_3  
     e(  4 -  4) =      9.04654  eV     1   --> B_2  D_4  S_4  
     e(  5 -  5) =     20.71873  eV     1   --> A_1  D_1  S_1  
     e(  6 -  6) =     26.16391  eV     1   --> B_1  D_3  S_3  
     e(  7 -  7) =     30.15684  eV     1   --> A_2  D_2  S_2  
     e(  8 -  8) =     31.73234  eV     1   --> A_1  D_1  S_1  

 **************************************************************************

 **************************************************************************

                    xk=(   0.96667,   0.24167,   0.24167  )

     point group C_s (m)    
     there are  2 classes
     the character table:

       E     s    
A'     1.00  1.00
A''    1.00 -1.00

     the symmetry operations in each class and the name of the first element:

     E        1
                                                                 
     s        2
                                                                 

     Band symmetry, C_s (m)     point group:

     e(  1 -  1) =      1.30625  eV     1   --> A'             
     e(  2 -  2) =      2.57871  eV     1   --> A'             
     e(  3 -  3) =      4.87618  eV     1   --> A'             
     e(  4 -  4) =      8.99231  eV     1   --> A''            
     e(  5 -  5) =     20.66514  eV     1   --> A'             
     e(  6 -  6) =     25.85654  eV     1   --> A'             
     e(  7 -  7) =     30.26914  eV     1   --> A''            
     e(  8 -  8) =     31.72194  eV     1   --> A'             

 **************************************************************************

 **************************************************************************

                    xk=(   0.93333,   0.23333,   0.23333  )

     Band symmetry, C_s (m)     point group:

     e(  1 -  1) =      0.97737  eV     1   --> A'             
     e(  2 -  2) =      2.77363  eV     1   --> A'             
     e(  3 -  3) =      5.14344  eV     1   --> A'             
     e(  4 -  4) =      8.95936  eV     1   --> A''            
     e(  5 -  5) =     20.62861  eV     1   --> A'             
     e(  6 -  6) =     25.57817  eV     1   --> A'             
     e(  7 -  7) =     30.30383  eV     1   --> A''            
     e(  8 -  8) =     31.59365  eV     1   --> A'             

 **************************************************************************

 **************************************************************************

                    xk=(   0.90000,   0.22500,   0.22500  )

     Band symmetry, C_s (m)     point group:

     e(  1 -  1) =      0.52188  eV     1   --> A'             
     e(  2 -  2) =      3.06398  eV     1   --> A'             
     e(  3 -  3) =      5.48787  eV     1   --> A'             
     e(  4 -  4) =      8.94816  eV     1   --> A''            
     e(  5 -  5) =     20.60746  eV     1   --> A'             
     e(  6 -  6) =     25.33292  eV     1   --> A'             
     e(  7 -  7) =     30.26641  eV     1   --> A''            
     e(  8 -  8) =     31.38525  eV     1   --> A'             

 **************************************************************************

 **************************************************************************

                    xk=(   0.86667,   0.21667,   0.21667  )

     Band symmetry, C_s (m)     point group:

     e(  1 -  1) =      0.01864  eV     1   --> A'             
     e(  2 -  2) =      3.39611  eV     1   --> A'             
     e(  3 -  3) =      5.88358  eV     1   --> A'             
     e(  4 -  4) =      8.95905  eV     1   --> A''            
     e(  5 -  5) =     20.59935  eV     1   --> A'             
     e(  6 -  6) =     25.12526  eV     1   --> A'             
     e(  7 -  7) =     30.16502  eV     1   --> A''            
     e(  8 -  8) =     31.12317  eV     1   --> A'             

 **************************************************************************

 **************************************************************************

                    xk=(   0.83333,   0.20833,   0.20833  )

     Band symmetry, C_s (m)     point group:

     e(  1 -  1) =     -0.49983  eV     1   --> A'             
     e(  2 -  2) =      3.75191  eV     1   --> A'             
     e(  3 -  3) =      6.31509  eV     1   --> A'             
     e(  4 -  4) =      8.99230  eV     1   --> A''            
     e(  5 -  5) =     20.60133  eV     1   --> A'             
     e(  6 -  6) =     24.96012  eV     1   --> A'             
     e(  7 -  7) =     30.00845  eV     1   --> A''            
     e(  8 -  8) =     30.82314  eV     1   --> A'             

 **************************************************************************

 **************************************************************************

                    xk=(   0.80000,   0.20000,   0.20000  )

     Band symmetry, C_s (m)     point group:

     e(  1 -  1) =     -1.01872  eV     1   --> A'             
     e(  2 -  2) =      4.12545  eV     1   --> A'             
     e(  3 -  3) =      6.77207  eV     1   --> A'             
     e(  4 -  4) =      9.04808  eV     1   --> A''            
     e(  5 -  5) =     20.60990  eV     1   --> A'             
     e(  6 -  6) =     24.84279  eV     1   --> A'             
     e(  7 -  7) =     29.80523  eV     1   --> A''            
     e(  8 -  8) =     30.49424  eV     1   --> A'             

 **************************************************************************

 **************************************************************************

                    xk=(   0.76667,   0.19167,   0.19167  )

     Band symmetry, C_s (m)     point group:

     e(  1 -  1) =     -1.53024  eV     1   --> A'             
     e(  2 -  2) =      4.51483  eV     1   --> A'             
     e(  3 -  3) =      7.24689  eV     1   --> A'             
     e(  4 -  4) =      9.12649  eV     1   --> A''            
     e(  5 -  5) =     20.62121  eV     1   --> A'             
     e(  6 -  6) =     24.77873  eV     1   --> A'             
     e(  7 -  7) =     29.56268  eV     1   --> A''            
     e(  8 -  8) =     30.14190  eV     1   --> A'             

 **************************************************************************

 **************************************************************************

                    xk=(   0.73333,   0.18333,   0.18333  )

     Band symmetry, C_s (m)     point group:

     e(  1 -  1) =     -2.02981  eV     1   --> A'             
     e(  2 -  2) =      4.91947  eV     1   --> A'             
     e(  3 -  3) =      7.73343  eV     1   --> A'             
     e(  4 -  4) =      9.22755  eV     1   --> A''            
     e(  5 -  5) =     20.63153  eV     1   --> A'             
     e(  6 -  6) =     24.77301  eV     1   --> A'             
     e(  7 -  7) =     29.28675  eV     1   --> A''            
     e(  8 -  8) =     29.76954  eV     1   --> A'             

 **************************************************************************

 **************************************************************************

                    xk=(   0.70000,   0.17500,   0.17500  )

     Band symmetry, C_s (m)     point group:

     e(  1 -  1) =     -2.51448  eV     1   --> A'             
     e(  2 -  2) =      5.33925  eV     1   --> A'             
     e(  3 -  3) =      8.22653  eV     1   --> A'             
     e(  4 -  4) =      9.35120  eV     1   --> A''            
     e(  5 -  5) =     20.63774  eV     1   --> A'             
     e(  6 -  6) =     24.82980  eV     1   --> A'             
     e(  7 -  7) =     28.98199  eV     1   --> A''            
     e(  8 -  8) =     29.37951  eV     1   --> A'             

 **************************************************************************

 **************************************************************************

                    xk=(   0.66667,   0.16667,   0.16667  )

     Band symmetry, C_s (m)     point group:

     e(  1 -  1) =     -2.98221  eV     1   --> A'             
     e(  2 -  2) =      5.77410  eV     1   --> A'             
     e(  3 -  3) =      8.72163  eV     1   --> A'             
     e(  4 -  4) =      9.49730  eV     1   --> A''            
     e(  5 -  5) =     20.63786  eV     1   --> A'             
     e(  6 -  6) =     24.95168  eV     1   --> A'             
     e(  7 -  7) =     28.65176  eV     1   --> A''            
     e(  8 -  8) =     28.97364  eV     1   --> A'             

 **************************************************************************

 **************************************************************************

                    xk=(   0.63333,   0.15833,   0.15833  )

     Band symmetry, C_s (m)     point group:

     e(  1 -  1) =     -3.43153  eV     1   --> A'             
     e(  2 -  2) =      6.22385  eV     1   --> A'             
     e(  3 -  3) =      9.21468  eV     1   --> A'             
     e(  4 -  4) =      9.66564  eV     1   --> A''            
     e(  5 -  5) =     20.63134  eV     1   --> A'             
     e(  6 -  6) =     25.13921  eV     1   --> A'             
     e(  7 -  7) =     28.29841  eV     1   --> A''            
     e(  8 -  8) =     28.55352  eV     1   --> A'             

 **************************************************************************

 **************************************************************************

                    xk=(   0.60000,   0.15000,   0.15000  )

     Band symmetry, C_s (m)     point group:

     e(  1 -  1) =     -3.86132  eV     1   --> A'             
     e(  2 -  2) =      6.68820  eV     1   --> A'             
     e(  3 -  3) =      9.70199  eV     1   --> A'             
     e(  4 -  4) =      9.85588  eV     1   --> A''            
     e(  5 -  5) =     20.61892  eV     1   --> A'             
     e(  6 -  6) =     25.39074  eV     1   --> A'             
     e(  7 -  7) =     27.92358  eV     1   --> A''            
     e(  8 -  8) =     28.12074  eV     1   --> A'             

 **************************************************************************

 **************************************************************************

                    xk=(   0.56667,   0.14167,   0.14167  )

     Band symmetry, C_s (m)     point group:

     e(  1 -  1) =     -4.27070  eV     1   --> A'             
     e(  2 -  2) =      7.16666  eV     1   --> A'             
     e(  3 -  3) =     10.06763  eV     1   --> A''            
     e(  4 -  4) =     10.18020  eV     1   --> A'             
     e(  5 -  5) =     20.60233  eV     1   --> A'             
     e(  6 -  6) =     25.70214  eV     1   --> A'             
     e(  7 -  7) =     27.52847  eV     1   --> A''            
     e(  8 -  8) =     27.67732  eV     1   --> A'             

 **************************************************************************

 **************************************************************************

                    xk=(   0.53333,   0.13333,   0.13333  )

     Band symmetry, C_s (m)     point group:

     e(  1 -  1) =     -4.65899  eV     1   --> A'             
     e(  2 -  2) =      7.65853  eV     1   --> A'             
     e(  3 -  3) =     10.30034  eV     1   --> A''            
     e(  4 -  4) =     10.64630  eV     1   --> A'             
     e(  5 -  5) =     20.58374  eV     1   --> A'             
     e(  6 -  6) =     26.06520  eV     1   --> A'             
     e(  7 -  7) =     27.11406  eV     1   --> A''            
     e(  8 -  8) =     27.22761  eV     1   --> A'             

 **************************************************************************

 **************************************************************************

                    xk=(   0.50000,   0.12500,   0.12500  )

     Band symmetry, C_s (m)     point group:

     e(  1 -  1) =     -5.02563  eV     1   --> A'             
     e(  2 -  2) =      8.16292  eV     1   --> A'             
     e(  3 -  3) =     10.55333  eV     1   --> A''            
     e(  4 -  4) =     11.09760  eV     1   --> A'             
     e(  5 -  5) =     20.56537  eV     1   --> A'             
     e(  6 -  6) =     26.43713  eV     1   --> A'             
     e(  7 -  7) =     26.68134  eV     1   --> A''            
     e(  8 -  8) =     26.80867  eV     1   --> A'             

 **************************************************************************

 **************************************************************************

                    xk=(   0.46667,   0.11667,   0.11667  )

     Band symmetry, C_s (m)     point group:

     e(  1 -  1) =     -5.37013  eV     1   --> A'             
     e(  2 -  2) =      8.67868  eV     1   --> A'             
     e(  3 -  3) =     10.82576  eV     1   --> A''            
     e(  4 -  4) =     11.53170  eV     1   --> A'             
     e(  5 -  5) =     20.54917  eV     1   --> A'             
     e(  6 -  6) =     26.23151  eV     1   --> A''            
     e(  7 -  7) =     26.24169  eV     1   --> A'             
     e(  8 -  8) =     26.98894  eV     1   --> A'             

 **************************************************************************

 **************************************************************************

                    xk=(   0.43333,   0.10833,   0.10833  )

     Band symmetry, C_s (m)     point group:

     e(  1 -  1) =     -5.69212  eV     1   --> A'             
     e(  2 -  2) =      9.20439  eV     1   --> A'             
     e(  3 -  3) =     11.11659  eV     1   --> A''            
     e(  4 -  4) =     11.94649  eV     1   --> A'             
     e(  5 -  5) =     20.53665  eV     1   --> A'             
     e(  6 -  6) =     25.76616  eV     1   --> A''            
     e(  7 -  7) =     25.77613  eV     1   --> A'             
     e(  8 -  8) =     27.46056  eV     1   --> A'             

 **************************************************************************

 **************************************************************************

                    xk=(   0.40000,   0.10000,   0.10000  )

     Band symmetry, C_s (m)     point group:

     e(  1 -  1) =     -5.99126  eV     1   --> A'             
     e(  2 -  2) =      9.73829  eV     1   --> A'             
     e(  3 -  3) =     11.42449  eV     1   --> A''            
     e(  4 -  4) =     12.34010  eV     1   --> A'             
     e(  5 -  5) =     20.52883  eV     1   --> A'             
     e(  6 -  6) =     25.28741  eV     1   --> A''            
     e(  7 -  7) =     25.29393  eV     1   --> A'             
     e(  8 -  8) =     27.95594  eV     1   --> A'             

 **************************************************************************

 **************************************************************************

                    xk=(   0.36667,   0.09167,   0.09167  )

     Band symmetry, C_s (m)     point group:

     e(  1 -  1) =     -6.26730  eV     1   --> A'             
     e(  2 -  2) =     10.27824  eV     1   --> A'             
     e(  3 -  3) =     11.74779  eV     1   --> A''            
     e(  4 -  4) =     12.71083  eV     1   --> A'             
     e(  5 -  5) =     20.52623  eV     1   --> A'             
     e(  6 -  6) =     24.79800  eV     1   --> A''            
     e(  7 -  7) =     24.80572  eV     1   --> A'             
     e(  8 -  8) =     28.44584  eV     1   --> A'             

 **************************************************************************

 **************************************************************************

                    xk=(   0.33333,   0.08333,   0.08333  )

     Band symmetry, C_s (m)     point group:

     e(  1 -  1) =     -6.51998  eV     1   --> A'             
     e(  2 -  2) =     10.82158  eV     1   --> A'             
     e(  3 -  3) =     12.08440  eV     1   --> A''            
     e(  4 -  4) =     13.05711  eV     1   --> A'             
     e(  5 -  5) =     20.52891  eV     1   --> A'             
     e(  6 -  6) =     24.30141  eV     1   --> A''            
     e(  7 -  7) =     24.31490  eV     1   --> A'             
     e(  8 -  8) =     28.90404  eV     1   --> A'             

 **************************************************************************

 **************************************************************************

                    xk=(   0.30000,   0.07500,   0.07500  )

     Band symmetry, C_s (m)     point group:

     e(  1 -  1) =     -6.74910  eV     1   --> A'             
     e(  2 -  2) =     11.36497  eV     1   --> A'             
     e(  3 -  3) =     12.43158  eV     1   --> A''            
     e(  4 -  4) =     13.37743  eV     1   --> A'             
     e(  5 -  5) =     20.53650  eV     1   --> A'             
     e(  6 -  6) =     23.80196  eV     1   --> A''            
     e(  7 -  7) =     23.82434  eV     1   --> A'             
     e(  8 -  8) =     29.30295  eV     1   --> A'             

 **************************************************************************

 **************************************************************************

                    xk=(   0.26667,   0.06667,   0.06667  )

     Band symmetry, C_s (m)     point group:

     e(  1 -  1) =     -6.95450  eV     1   --> A'             
     e(  2 -  2) =     11.90418  eV     1   --> A'             
     e(  3 -  3) =     12.78578  eV     1   --> A''            
     e(  4 -  4) =     13.67029  eV     1   --> A'             
     e(  5 -  5) =     20.54831  eV     1   --> A'             
     e(  6 -  6) =     23.30496  eV     1   --> A''            
     e(  7 -  7) =     23.33734  eV     1   --> A'             
     e(  8 -  8) =     29.61918  eV     1   --> A'             

 **************************************************************************

 **************************************************************************

                    xk=(   0.23333,   0.05833,   0.05833  )

     Band symmetry, C_s (m)     point group:

     e(  1 -  1) =     -7.13604  eV     1   --> A'             
     e(  2 -  2) =     12.43371  eV     1   --> A'             
     e(  3 -  3) =     13.14228  eV     1   --> A''            
     e(  4 -  4) =     13.93413  eV     1   --> A'             
     e(  5 -  5) =     20.56332  eV     1   --> A'             
     e(  6 -  6) =     22.81697  eV     1   --> A''            
     e(  7 -  7) =     22.85822  eV     1   --> A'             
     e(  8 -  8) =     29.84160  eV     1   --> A'             

 **************************************************************************

 **************************************************************************

                    xk=(   0.20000,   0.05000,   0.05000  )

     Band symmetry, C_s (m)     point group:

     e(  1 -  1) =     -7.29360  eV     1   --> A'             
     e(  2 -  2) =     12.94628  eV     1   --> A'             
     e(  3 -  3) =     13.49478  eV     1   --> A''            
     e(  4 -  4) =     14.16738  eV     1   --> A'             
     e(  5 -  5) =     20.58031  eV     1   --> A'             
     e(  6 -  6) =     22.34613  eV     1   --> A''            
     e(  7 -  7) =     22.39297  eV     1   --> A'             
     e(  8 -  8) =     29.97532  eV     1   --> A'             

 **************************************************************************

 **************************************************************************

                    xk=(   0.16667,   0.04167,   0.04167  )

     Band symmetry, C_s (m)     point group:

     e(  1 -  1) =     -7.42707  eV     1   --> A'             
     e(  2 -  2) =     13.43209  eV     1   --> A'             
     e(  3 -  3) =     13.83474  eV     1   --> A''            
     e(  4 -  4) =     14.36841  eV     1   --> A'             
     e(  5 -  5) =     20.59793  eV     1   --> A'             
     e(  6 -  6) =     21.90271  eV     1   --> A''            
     e(  7 -  7) =     21.95007  eV     1   --> A'             
     e(  8 -  8) =     30.03861  eV     1   --> A'             

 **************************************************************************

 **************************************************************************

                    xk=(   0.13333,   0.03333,   0.03333  )

     Band symmetry, C_s (m)     point group:

     e(  1 -  1) =     -7.53639  eV     1   --> A'             
     e(  2 -  2) =     13.87775  eV     1   --> A'             
     e(  3 -  3) =     14.15071  eV     1   --> A''            
     e(  4 -  4) =     14.53563  eV     1   --> A'             
     e(  5 -  5) =     20.61479  eV     1   --> A'             
     e(  6 -  6) =     21.49977  eV     1   --> A''            
     e(  7 -  7) =     21.54161  eV     1   --> A'             
     e(  8 -  8) =     30.05458  eV     1   --> A'             

 **************************************************************************

 **************************************************************************

                    xk=(   0.10000,   0.02500,   0.02500  )

     Band symmetry, C_s (m)     point group:

     e(  1 -  1) =     -7.62147  eV     1   --> A'             
     e(  2 -  2) =     14.26522  eV     1   --> A'             
     e(  3 -  3) =     14.42769  eV     1   --> A''            
     e(  4 -  4) =     14.66753  eV     1   --> A'             
     e(  5 -  5) =     20.62954  eV     1   --> A'             
     e(  6 -  6) =     21.15365  eV     1   --> A''            
     e(  7 -  7) =     21.18444  eV     1   --> A'             
     e(  8 -  8) =     30.04492  eV     1   --> A'             

 **************************************************************************

 **************************************************************************

                    xk=(   0.06667,   0.01667,   0.01667  )

     Band symmetry, C_s (m)     point group:

     e(  1 -  1) =     -7.68228  eV     1   --> A'             
     e(  2 -  2) =     14.57142  eV     1   --> A'             
     e(  3 -  3) =     14.64733  eV     1   --> A''            
     e(  4 -  4) =     14.76280  eV     1   --> A'             
     e(  5 -  5) =     20.64103  eV     1   --> A'             
     e(  6 -  6) =     20.88380  eV     1   --> A''            
     e(  7 -  7) =     20.90065  eV     1   --> A'             
     e(  8 -  8) =     30.02626  eV     1   --> A'             

 **************************************************************************

 **************************************************************************

                    xk=(   0.03333,   0.00833,   0.00833  )

     Band symmetry, C_s (m)     point group:

     e(  1 -  1) =     -7.71877  eV     1   --> A'             
     e(  2 -  2) =     14.77035  eV     1   --> A'             
     e(  3 -  3) =     14.79001  eV     1   --> A''            
     e(  4 -  4) =     14.82040  eV     1   --> A'             
     e(  5 -  5) =     20.64831  eV     1   --> A'             
     e(  6 -  6) =     20.71068  eV     1   --> A''            
     e(  7 -  7) =     20.71549  eV     1   --> A'             
     e(  8 -  8) =     30.01053  eV     1   --> A'             

 **************************************************************************

 **************************************************************************

                    xk=(   0.00000,   0.00000,   0.00000  )

     point group O_h (m-3m) 
     there are 10 classes
     the character table:

       E     8C3   3C2   6C4   6C2'  i     8S6   3s_h  6S4   6s_d 
A_1g   1.00  1.00  1.00  1.00  1.00  1.00  1.00  1.00  1.00  1.00
A_2g   1.00  1.00  1.00 -1.00 -1.00  1.00  1.00  1.00 -1.00 -1.00
E_g    2.00 -1.00  2.00  0.00  0.00  2.00 -1.00  2.00  0.00  0.00
T_1g   3.00  0.00 -1.00  1.00 -1.00  3.00  0.00 -1.00  1.00 -1.00
T_2g   3.00  0.00 -1.00 -1.00  1.00  3.00  0.00 -1.00 -1.00  1.00
A_1u   1.00  1.00  1.00  1.00  1.00 -1.00 -1.00 -1.00 -1.00 -1.00
A_2u   1.00  1.00  1.00 -1.00 -1.00 -1.00 -1.00 -1.00  1.00  1.00
E_u    2.00 -1.00  2.00  0.00  0.00 -2.00  1.00 -2.00  0.00  0.00
T_1u   3.00  0.00 -1.00  1.00 -1.00 -3.00  0.00  1.00 -1.00  1.00
T_2u   3.00  0.00 -1.00 -1.00  1.00 -3.00  0.00  1.00  1.00 -1.00

     the symmetry operations in each class and the name of the first element:

     E        1
                                                                 
     8C3     17   19   20   18   24   21   22   23
                                                                 
     3C2      2    4    3
                                                                 
     6C4      7    8   15   16   12   11
                                                                 
     6C2'     5    6   14   13   10    9
                                                                 
     i       25
                                                                 
     8S6     41   43   44   42   48   45   46   47
                                                                 
     3s_h    26   28   27
                                                                 
     6S4     31   32   39   40   36   35
                                                                 
     6s_d    29   30   38   37   34   33
                                                                 

     Band symmetry, O_h (m-3m)  point group:

     e(  1 -  1) =     -7.73094  eV     1   --> A_1g G_1   G_1+
     e(  2 -  4) =     14.83968  eV     3   --> T_2g G_25' G_5+
     e(  5 -  7) =     20.65080  eV     3   --> T_1u G_15  G_4-
     e(  8 -  8) =     30.00458  eV     1   --> A_2u G_2'  G_2-

 **************************************************************************

     BANDS        :     14.03s CPU      5.99s WALL


   This run was terminated on:  15: 1:27  12May2023            

=------------------------------------------------------------------------------=
   JOB DONE.
=------------------------------------------------------------------------------=
