
     Program PWSCF v.6.4.1 starts on 12May2023 at 20:21:25 

     This program is part of the open-source Quantum ESPRESSO suite
     for quantum simulation of materials; please cite
         "P. Giannozzi et al., J. Phys.:Condens. Matter 21 395502 (2009);
         "P. Giannozzi et al., J. Phys.:Condens. Matter 29 465901 (2017);
          URL http://www.quantum-espresso.org", 
     in publications or presentations arising from this work. More details at
     http://www.quantum-espresso.org/quote

     Parallel version (MPI), running on     1 processors

     MPI processes distributed on     1 nodes
     Waiting for input...
     Reading input from standard input

     Current dimensions of program PWSCF are:
     Max number of different atomic species (ntypx) = 10
     Max number of k-points (npk) =  40000
     Max angular momentum in pseudopotentials (lmaxx) =  3
               file C.pbe-n-kjpaw_psl.1.0.0.UPF: wavefunction(s)  2S 2P renormalized

     Subspace diagonalization in iterative solution of the eigenvalue problem:
     a serial algorithm will be used


     G-vector sticks info
     --------------------
     sticks:   dense  smooth     PW     G-vecs:    dense   smooth      PW
     Sum         379     379    121                 5029     5029     941



     bravais-lattice index     =            2
     lattice parameter (alat)  =       5.6000  a.u.
     unit-cell volume          =      43.9040 (a.u.)^3
     number of atoms/cell      =            2
     number of atomic types    =            1
     number of electrons       =         8.00
     number of Kohn-Sham states=            4
     kinetic-energy cutoff     =      90.0000  Ry
     charge density cutoff     =     360.0000  Ry
     convergence threshold     =      1.0E-08
     mixing beta               =       0.2000
     number of iterations used =            8  plain     mixing
     Exchange-correlation      = SLA PW PBX PBC ( 1  4  3  4 0 0)

     celldm(1)=   5.600000  celldm(2)=   0.000000  celldm(3)=   0.000000
     celldm(4)=   0.000000  celldm(5)=   0.000000  celldm(6)=   0.000000

     crystal axes: (cart. coord. in units of alat)
               a(1) = (  -0.500000   0.000000   0.500000 )  
               a(2) = (   0.000000   0.500000   0.500000 )  
               a(3) = (  -0.500000   0.500000   0.000000 )  

     reciprocal axes: (cart. coord. in units 2 pi/alat)
               b(1) = ( -1.000000 -1.000000  1.000000 )  
               b(2) = (  1.000000  1.000000  1.000000 )  
               b(3) = ( -1.000000  1.000000 -1.000000 )  


     PseudoPot. # 1 for C  read from file:
     ../../pseudo/C.pbe-n-kjpaw_psl.1.0.0.UPF
     MD5 check sum: 5f16ad9a65e90284d1d834d4ab3b0f7d
     Pseudo is Projector augmented-wave + core cor, Zval =  4.0
     Generated using "atomic" code by A. Dal Corso v.6.3
     Shape of augmentation charge: PSQ
     Using radial grid of 1073 points,  4 beta functions with: 
                l(1) =   0
                l(2) =   0
                l(3) =   1
                l(4) =   1
     Q(r) pseudized with 0 coefficients 


     atomic species   valence    mass     pseudopotential
        C              4.00    12.00000     C ( 1.00)

     48 Sym. Ops., with inversion, found (36 have fractional translation)



   Cartesian axes

     site n.     atom                  positions (alat units)
         1           C   tau(   1) = (  -0.1250000   0.1250000   0.1250000  )
         2           C   tau(   2) = (  -0.8750000   0.8750000   0.8750000  )

     number of k points=     8
                       cart. coord. in units 2pi/alat
        k(    1) = (   0.0000000   0.0000000   0.0000000), wk =   0.0312500
        k(    2) = (  -0.2500000   0.2500000  -0.2500000), wk =   0.2500000
        k(    3) = (   0.5000000  -0.5000000   0.5000000), wk =   0.1250000
        k(    4) = (   0.0000000   0.5000000   0.0000000), wk =   0.1875000
        k(    5) = (   0.7500000  -0.2500000   0.7500000), wk =   0.7500000
        k(    6) = (   0.5000000   0.0000000   0.5000000), wk =   0.3750000
        k(    7) = (   0.0000000  -1.0000000   0.0000000), wk =   0.0937500
        k(    8) = (  -0.5000000  -1.0000000   0.0000000), wk =   0.1875000

     Dense  grid:     5029 G-vectors     FFT dimensions: (  24,  24,  24)

     Estimated max dynamical RAM per process >       7.38 MB

     Check: negative core charge=   -0.000012

     Initial potential from superposition of free atoms

     starting charge    7.99992, renormalised to    8.00000
     Starting wfcs are    8 randomized atomic wfcs
     Checking if some PAW data can be deallocated... 

     total cpu time spent up to now is        0.4 secs

     Self-consistent Calculation

     iteration #  1     ecut=    90.00 Ry     beta= 0.20
     Davidson diagonalization with overlap
     ethr =  1.00E-04,  avg # of iterations =  3.9

     total cpu time spent up to now is        0.5 secs

     total energy              =     -36.45568980 Ry
     Harris-Foulkes estimate   =     -36.53347691 Ry
     estimated scf accuracy    <       0.33454606 Ry

     iteration #  2     ecut=    90.00 Ry     beta= 0.20
     Davidson diagonalization with overlap
     ethr =  4.18E-03,  avg # of iterations =  1.0

     total cpu time spent up to now is        0.6 secs

     total energy              =     -36.34979687 Ry
     Harris-Foulkes estimate   =     -36.45792141 Ry
     estimated scf accuracy    <       0.18836209 Ry

     iteration #  3     ecut=    90.00 Ry     beta= 0.20
     Davidson diagonalization with overlap
     ethr =  2.35E-03,  avg # of iterations =  2.0

     total cpu time spent up to now is        0.8 secs

     total energy              =     -36.36981028 Ry
     Harris-Foulkes estimate   =     -36.36982266 Ry
     estimated scf accuracy    <       0.00038548 Ry

     iteration #  4     ecut=    90.00 Ry     beta= 0.20
     Davidson diagonalization with overlap
     ethr =  4.82E-06,  avg # of iterations =  3.0

     total cpu time spent up to now is        0.9 secs

     total energy              =     -36.37044679 Ry
     Harris-Foulkes estimate   =     -36.37044511 Ry
     estimated scf accuracy    <       0.00016039 Ry

     iteration #  5     ecut=    90.00 Ry     beta= 0.20
     Davidson diagonalization with overlap
     ethr =  2.00E-06,  avg # of iterations =  1.5

     total cpu time spent up to now is        1.1 secs

     total energy              =     -36.37046118 Ry
     Harris-Foulkes estimate   =     -36.37046278 Ry
     estimated scf accuracy    <       0.00001166 Ry

     iteration #  6     ecut=    90.00 Ry     beta= 0.20
     Davidson diagonalization with overlap
     ethr =  1.46E-07,  avg # of iterations =  1.0

     total cpu time spent up to now is        1.4 secs

     total energy              =     -36.37046084 Ry
     Harris-Foulkes estimate   =     -36.37046186 Ry
     estimated scf accuracy    <       0.00000408 Ry

     iteration #  7     ecut=    90.00 Ry     beta= 0.20
     Davidson diagonalization with overlap
     ethr =  5.10E-08,  avg # of iterations =  1.1

     total cpu time spent up to now is        1.5 secs

     total energy              =     -36.37046107 Ry
     Harris-Foulkes estimate   =     -36.37046108 Ry
     estimated scf accuracy    <       0.00000001 Ry

     iteration #  8     ecut=    90.00 Ry     beta= 0.20
     Davidson diagonalization with overlap
     ethr =  1.51E-10,  avg # of iterations =  3.1

     total cpu time spent up to now is        1.6 secs

     total energy              =     -36.37046110 Ry
     Harris-Foulkes estimate   =     -36.37046110 Ry
     estimated scf accuracy    <       0.00000002 Ry

     iteration #  9     ecut=    90.00 Ry     beta= 0.20
     Davidson diagonalization with overlap
     ethr =  1.51E-10,  avg # of iterations =  1.0

     total cpu time spent up to now is        1.7 secs

     total energy              =     -36.37046109 Ry
     Harris-Foulkes estimate   =     -36.37046110 Ry
     estimated scf accuracy    <       0.00000002 Ry

     iteration # 10     ecut=    90.00 Ry     beta= 0.20
     Davidson diagonalization with overlap
     ethr =  1.51E-10,  avg # of iterations =  1.4

     total cpu time spent up to now is        1.8 secs

     End of self-consistent calculation

          k = 0.0000 0.0000 0.0000 (   609 PWs)   bands (ev):

    -4.5680  25.9995  25.9995  25.9995

          k =-0.2500 0.2500-0.2500 (   631 PWs)   bands (ev):

    -2.1486  16.0334  23.0321  23.0321

          k = 0.5000-0.5000 0.5000 (   628 PWs)   bands (ev):

     4.6585   5.2910  21.4064  21.4064

          k = 0.0000 0.5000 0.0000 (   632 PWs)   bands (ev):

    -1.3326  18.9052  18.9052  20.5194

          k = 0.7500-0.2500 0.7500 (   637 PWs)   bands (ev):

     4.2144  10.0869  15.8140  17.7666

          k = 0.5000 0.0000 0.5000 (   624 PWs)   bands (ev):

     1.8349  13.6007  13.8682  20.9454

          k = 0.0000-1.0000 0.0000 (   636 PWs)   bands (ev):

     8.1172   8.1172  15.4363  15.4363

          k =-0.5000-1.0000 0.0000 (   648 PWs)   bands (ev):

    10.3566  10.3566  11.4787  11.4787

     highest occupied level (ev):    25.9995

!    total energy              =     -36.37046110 Ry
     Harris-Foulkes estimate   =     -36.37046110 Ry
     estimated scf accuracy    <          1.0E-11 Ry

     total all-electron energy =      -151.898656 Ry

     The total energy is the sum of the following terms:

     one-electron contribution =      15.80718644 Ry
     hartree contribution      =       1.45238480 Ry
     xc contribution           =     -10.47870080 Ry
     ewald contribution        =     -30.78170361 Ry
     one-center paw contrib.   =     -12.36962792 Ry

     convergence has been achieved in  10 iterations

     Writing output data file diamond.save/

     init_run     :      0.23s CPU      0.20s WALL (       1 calls)
     electrons    :      3.31s CPU      1.44s WALL (       1 calls)

     Called by init_run:
     wfcinit      :      0.05s CPU      0.02s WALL (       1 calls)
     potinit      :      0.05s CPU      0.05s WALL (       1 calls)
     hinit0       :      0.11s CPU      0.11s WALL (       1 calls)

     Called by electrons:
     c_bands      :      1.01s CPU      0.47s WALL (      10 calls)
     sum_band     :      0.30s CPU      0.13s WALL (      10 calls)
     v_of_rho     :      0.19s CPU      0.07s WALL (      11 calls)
     newd         :      0.05s CPU      0.04s WALL (      11 calls)
     PAW_pot      :      1.79s CPU      0.78s WALL (      11 calls)
     mix_rho      :      0.02s CPU      0.01s WALL (      10 calls)

     Called by c_bands:
     init_us_2    :      0.05s CPU      0.02s WALL (     168 calls)
     cegterg      :      0.93s CPU      0.44s WALL (      80 calls)

     Called by sum_band:
     sum_band:bec :      0.00s CPU      0.00s WALL (      80 calls)
     addusdens    :      0.09s CPU      0.04s WALL (      10 calls)

     Called by *egterg:
     h_psi        :      0.87s CPU      0.40s WALL (     240 calls)
     s_psi        :      0.02s CPU      0.01s WALL (     240 calls)
     g_psi        :      0.00s CPU      0.00s WALL (     152 calls)
     cdiaghg      :      0.02s CPU      0.01s WALL (     232 calls)

     Called by h_psi:
     h_psi:pot    :      0.87s CPU      0.40s WALL (     240 calls)
     h_psi:calbec :      0.29s CPU      0.19s WALL (     240 calls)
     vloc_psi     :      0.55s CPU      0.21s WALL (     240 calls)
     add_vuspsi   :      0.02s CPU      0.01s WALL (     240 calls)

     General routines
     calbec       :      0.33s CPU      0.22s WALL (     320 calls)
     fft          :      0.07s CPU      0.04s WALL (     121 calls)
     ffts         :      0.00s CPU      0.00s WALL (      10 calls)
     fftw         :      0.56s CPU      0.21s WALL (    2140 calls)

     Parallel routines

     PWSCF        :      3.72s CPU      1.81s WALL


   This run was terminated on:  20:21:27  12May2023            

=------------------------------------------------------------------------------=
   JOB DONE.
=------------------------------------------------------------------------------=
