
     Program PWSCF v.6.4.1 starts on 12May2023 at 20:22:43 

     This program is part of the open-source Quantum ESPRESSO suite
     for quantum simulation of materials; please cite
         "P. Giannozzi et al., J. Phys.:Condens. Matter 21 395502 (2009);
         "P. Giannozzi et al., J. Phys.:Condens. Matter 29 465901 (2017);
          URL http://www.quantum-espresso.org", 
     in publications or presentations arising from this work. More details at
     http://www.quantum-espresso.org/quote

     Parallel version (MPI), running on     1 processors

     MPI processes distributed on     1 nodes
     Waiting for input...
     Reading input from standard input

     Current dimensions of program PWSCF are:
     Max number of different atomic species (ntypx) = 10
     Max number of k-points (npk) =  40000
     Max angular momentum in pseudopotentials (lmaxx) =  3
               file C.pbe-n-kjpaw_psl.1.0.0.UPF: wavefunction(s)  2S 2P renormalized

     Subspace diagonalization in iterative solution of the eigenvalue problem:
     a serial algorithm will be used


     G-vector sticks info
     --------------------
     sticks:   dense  smooth     PW     G-vecs:    dense   smooth      PW
     Sum         769     769    235                14211    14211    2277



     bravais-lattice index     =            2
     lattice parameter (alat)  =       7.9000  a.u.
     unit-cell volume          =     123.2598 (a.u.)^3
     number of atoms/cell      =            2
     number of atomic types    =            1
     number of electrons       =         8.00
     number of Kohn-Sham states=            4
     kinetic-energy cutoff     =      90.0000  Ry
     charge density cutoff     =     360.0000  Ry
     convergence threshold     =      1.0E-08
     mixing beta               =       0.2000
     number of iterations used =            8  plain     mixing
     Exchange-correlation      = SLA PW PBX PBC ( 1  4  3  4 0 0)

     celldm(1)=   7.900000  celldm(2)=   0.000000  celldm(3)=   0.000000
     celldm(4)=   0.000000  celldm(5)=   0.000000  celldm(6)=   0.000000

     crystal axes: (cart. coord. in units of alat)
               a(1) = (  -0.500000   0.000000   0.500000 )  
               a(2) = (   0.000000   0.500000   0.500000 )  
               a(3) = (  -0.500000   0.500000   0.000000 )  

     reciprocal axes: (cart. coord. in units 2 pi/alat)
               b(1) = ( -1.000000 -1.000000  1.000000 )  
               b(2) = (  1.000000  1.000000  1.000000 )  
               b(3) = ( -1.000000  1.000000 -1.000000 )  


     PseudoPot. # 1 for C  read from file:
     ../../pseudo/C.pbe-n-kjpaw_psl.1.0.0.UPF
     MD5 check sum: 5f16ad9a65e90284d1d834d4ab3b0f7d
     Pseudo is Projector augmented-wave + core cor, Zval =  4.0
     Generated using "atomic" code by A. Dal Corso v.6.3
     Shape of augmentation charge: PSQ
     Using radial grid of 1073 points,  4 beta functions with: 
                l(1) =   0
                l(2) =   0
                l(3) =   1
                l(4) =   1
     Q(r) pseudized with 0 coefficients 


     atomic species   valence    mass     pseudopotential
        C              4.00    12.00000     C ( 1.00)

     48 Sym. Ops., with inversion, found (36 have fractional translation)



   Cartesian axes

     site n.     atom                  positions (alat units)
         1           C   tau(   1) = (  -0.1250000   0.1250000   0.1250000  )
         2           C   tau(   2) = (  -0.8750000   0.8750000   0.8750000  )

     number of k points=     8
                       cart. coord. in units 2pi/alat
        k(    1) = (   0.0000000   0.0000000   0.0000000), wk =   0.0312500
        k(    2) = (  -0.2500000   0.2500000  -0.2500000), wk =   0.2500000
        k(    3) = (   0.5000000  -0.5000000   0.5000000), wk =   0.1250000
        k(    4) = (   0.0000000   0.5000000   0.0000000), wk =   0.1875000
        k(    5) = (   0.7500000  -0.2500000   0.7500000), wk =   0.7500000
        k(    6) = (   0.5000000   0.0000000   0.5000000), wk =   0.3750000
        k(    7) = (   0.0000000  -1.0000000   0.0000000), wk =   0.0937500
        k(    8) = (  -0.5000000  -1.0000000   0.0000000), wk =   0.1875000

     Dense  grid:    14211 G-vectors     FFT dimensions: (  36,  36,  36)

     Estimated max dynamical RAM per process >      20.83 MB

     Check: negative core charge=   -0.000012

     Initial potential from superposition of free atoms

     starting charge    7.99992, renormalised to    8.00000
     Starting wfcs are    8 randomized atomic wfcs
     Checking if some PAW data can be deallocated... 

     total cpu time spent up to now is        0.5 secs

     Self-consistent Calculation

     iteration #  1     ecut=    90.00 Ry     beta= 0.20
     Davidson diagonalization with overlap
     ethr =  1.00E-04,  avg # of iterations =  3.8

     total cpu time spent up to now is        1.0 secs

     total energy              =     -36.67343844 Ry
     Harris-Foulkes estimate   =     -36.67602501 Ry
     estimated scf accuracy    <       0.03594222 Ry

     iteration #  2     ecut=    90.00 Ry     beta= 0.20
     Davidson diagonalization with overlap
     ethr =  4.49E-04,  avg # of iterations =  1.0

     total cpu time spent up to now is        1.1 secs

     total energy              =     -36.67013511 Ry
     Harris-Foulkes estimate   =     -36.67359608 Ry
     estimated scf accuracy    <       0.02152476 Ry

     iteration #  3     ecut=    90.00 Ry     beta= 0.20
     Davidson diagonalization with overlap
     ethr =  2.69E-04,  avg # of iterations =  1.0

     total cpu time spent up to now is        1.3 secs

     total energy              =     -36.67119853 Ry
     Harris-Foulkes estimate   =     -36.67121355 Ry
     estimated scf accuracy    <       0.00037158 Ry

     iteration #  4     ecut=    90.00 Ry     beta= 0.20
     Davidson diagonalization with overlap
     ethr =  4.64E-06,  avg # of iterations =  2.1

     total cpu time spent up to now is        1.6 secs

     total energy              =     -36.67124259 Ry
     Harris-Foulkes estimate   =     -36.67126212 Ry
     estimated scf accuracy    <       0.00003771 Ry

     iteration #  5     ecut=    90.00 Ry     beta= 0.20
     Davidson diagonalization with overlap
     ethr =  4.71E-07,  avg # of iterations =  2.2

     total cpu time spent up to now is        1.9 secs

     total energy              =     -36.67125032 Ry
     Harris-Foulkes estimate   =     -36.67125033 Ry
     estimated scf accuracy    <       0.00000036 Ry

     iteration #  6     ecut=    90.00 Ry     beta= 0.20
     Davidson diagonalization with overlap
     ethr =  4.55E-09,  avg # of iterations =  3.5

     total cpu time spent up to now is        2.2 secs

     total energy              =     -36.67126007 Ry
     Harris-Foulkes estimate   =     -36.67125071 Ry
     estimated scf accuracy    <       0.00000024 Ry

     iteration #  7     ecut=    90.00 Ry     beta= 0.20
     Davidson diagonalization with overlap
     ethr =  2.99E-09,  avg # of iterations =  3.8

     total cpu time spent up to now is        2.6 secs

     total energy              =     -36.67124924 Ry
     Harris-Foulkes estimate   =     -36.67126268 Ry
     estimated scf accuracy    <       0.00002831 Ry

     iteration #  8     ecut=    90.00 Ry     beta= 0.20
     Davidson diagonalization with overlap
     ethr =  2.99E-09,  avg # of iterations =  3.1

     total cpu time spent up to now is        2.9 secs

     total energy              =     -36.67125121 Ry
     Harris-Foulkes estimate   =     -36.67125123 Ry
     estimated scf accuracy    <       0.00000102 Ry

     iteration #  9     ecut=    90.00 Ry     beta= 0.20
     Davidson diagonalization with overlap
     ethr =  2.99E-09,  avg # of iterations =  1.0

     total cpu time spent up to now is        3.1 secs

     total energy              =     -36.67125090 Ry
     Harris-Foulkes estimate   =     -36.67125121 Ry
     estimated scf accuracy    <       0.00000093 Ry

     iteration # 10     ecut=    90.00 Ry     beta= 0.20
     Davidson diagonalization with overlap
     ethr =  2.99E-09,  avg # of iterations =  2.0

     total cpu time spent up to now is        3.3 secs

     total energy              =     -36.67125086 Ry
     Harris-Foulkes estimate   =     -36.67125093 Ry
     estimated scf accuracy    <       0.00000021 Ry

     iteration # 11     ecut=    90.00 Ry     beta= 0.20
     Davidson diagonalization with overlap
     ethr =  2.58E-09,  avg # of iterations =  1.0

     total cpu time spent up to now is        3.5 secs

     total energy              =     -36.67125086 Ry
     Harris-Foulkes estimate   =     -36.67125087 Ry
     estimated scf accuracy    <       0.00000004 Ry

     iteration # 12     ecut=    90.00 Ry     beta= 0.20
     Davidson diagonalization with overlap
     ethr =  4.60E-10,  avg # of iterations =  2.0

     total cpu time spent up to now is        3.7 secs

     End of self-consistent calculation

          k = 0.0000 0.0000 0.0000 (  1807 PWs)   bands (ev):

    -9.8487   6.2490   6.2490   6.2490

          k =-0.2500 0.2500-0.2500 (  1799 PWs)   bands (ev):

    -8.6632   1.3640   5.1761   5.1761

          k = 0.5000-0.5000 0.5000 (  1772 PWs)   bands (ev):

    -6.3137  -2.9544   4.4769   4.4769

          k = 0.0000 0.5000 0.0000 (  1812 PWs)   bands (ev):

    -8.2563   1.9708   3.7493   3.7493

          k = 0.7500-0.2500 0.7500 (  1776 PWs)   bands (ev):

    -5.8342  -1.9514   1.7567   3.2339

          k = 0.5000 0.0000 0.5000 (  1780 PWs)   bands (ev):

    -6.8240  -0.6947   1.4675   4.3752

          k = 0.0000-1.0000 0.0000 (  1772 PWs)   bands (ev):

    -3.8528  -3.8528   2.3333   2.3333

          k =-0.5000-1.0000 0.0000 (  1768 PWs)   bands (ev):

    -3.5850  -3.5850   1.2692   1.2692

     highest occupied level (ev):     6.2490

!    total energy              =     -36.67125087 Ry
     Harris-Foulkes estimate   =     -36.67125087 Ry
     estimated scf accuracy    <          4.5E-10 Ry

     total all-electron energy =      -152.199445 Ry

     The total energy is the sum of the following terms:

     one-electron contribution =       3.62985181 Ry
     hartree contribution      =       2.52779837 Ry
     xc contribution           =      -8.68697799 Ry
     ewald contribution        =     -21.81994144 Ry
     one-center paw contrib.   =     -12.32198162 Ry

     convergence has been achieved in  12 iterations

     Writing output data file diamond.save/

     init_run     :      0.49s CPU      0.34s WALL (       1 calls)
     electrons    :      7.19s CPU      3.22s WALL (       1 calls)

     Called by init_run:
     wfcinit      :      0.28s CPU      0.13s WALL (       1 calls)
     potinit      :      0.06s CPU      0.06s WALL (       1 calls)
     hinit0       :      0.13s CPU      0.13s WALL (       1 calls)

     Called by electrons:
     c_bands      :      3.58s CPU      1.63s WALL (      12 calls)
     sum_band     :      1.07s CPU      0.41s WALL (      12 calls)
     v_of_rho     :      0.64s CPU      0.27s WALL (      13 calls)
     newd         :      0.21s CPU      0.16s WALL (      13 calls)
     PAW_pot      :      1.65s CPU      0.79s WALL (      13 calls)
     mix_rho      :      0.09s CPU      0.03s WALL (      12 calls)

     Called by c_bands:
     init_us_2    :      0.14s CPU      0.06s WALL (     200 calls)
     cegterg      :      3.34s CPU      1.53s WALL (      96 calls)

     Called by sum_band:
     sum_band:bec :      0.00s CPU      0.00s WALL (      96 calls)
     addusdens    :      0.22s CPU      0.08s WALL (      12 calls)

     Called by *egterg:
     h_psi        :      3.29s CPU      1.51s WALL (     316 calls)
     s_psi        :      0.08s CPU      0.05s WALL (     316 calls)
     g_psi        :      0.02s CPU      0.01s WALL (     212 calls)
     cdiaghg      :      0.03s CPU      0.02s WALL (     308 calls)

     Called by h_psi:
     h_psi:pot    :      3.28s CPU      1.50s WALL (     316 calls)
     h_psi:calbec :      0.55s CPU      0.41s WALL (     316 calls)
     vloc_psi     :      2.69s CPU      1.08s WALL (     316 calls)
     add_vuspsi   :      0.04s CPU      0.02s WALL (     316 calls)

     General routines
     calbec       :      0.64s CPU      0.47s WALL (     412 calls)
     fft          :      0.28s CPU      0.12s WALL (     143 calls)
     ffts         :      0.02s CPU      0.01s WALL (      12 calls)
     fftw         :      2.84s CPU      1.11s WALL (    2758 calls)

     Parallel routines

     PWSCF        :      7.86s CPU      3.75s WALL


   This run was terminated on:  20:22:47  12May2023            

=------------------------------------------------------------------------------=
   JOB DONE.
=------------------------------------------------------------------------------=
