
     Program PWSCF v.6.4.1 starts on 12May2023 at 20:21:28 

     This program is part of the open-source Quantum ESPRESSO suite
     for quantum simulation of materials; please cite
         "P. Giannozzi et al., J. Phys.:Condens. Matter 21 395502 (2009);
         "P. Giannozzi et al., J. Phys.:Condens. Matter 29 465901 (2017);
          URL http://www.quantum-espresso.org", 
     in publications or presentations arising from this work. More details at
     http://www.quantum-espresso.org/quote

     Parallel version (MPI), running on     1 processors

     MPI processes distributed on     1 nodes
     Waiting for input...
     Reading input from standard input

     Current dimensions of program PWSCF are:
     Max number of different atomic species (ntypx) = 10
     Max number of k-points (npk) =  40000
     Max angular momentum in pseudopotentials (lmaxx) =  3
               file C.pbe-n-kjpaw_psl.1.0.0.UPF: wavefunction(s)  2S 2P renormalized

     Subspace diagonalization in iterative solution of the eigenvalue problem:
     a serial algorithm will be used


     G-vector sticks info
     --------------------
     sticks:   dense  smooth     PW     G-vecs:    dense   smooth      PW
     Sum         409     409    121                 5329     5329     941



     bravais-lattice index     =            2
     lattice parameter (alat)  =       5.7000  a.u.
     unit-cell volume          =      46.2983 (a.u.)^3
     number of atoms/cell      =            2
     number of atomic types    =            1
     number of electrons       =         8.00
     number of Kohn-Sham states=            4
     kinetic-energy cutoff     =      90.0000  Ry
     charge density cutoff     =     360.0000  Ry
     convergence threshold     =      1.0E-08
     mixing beta               =       0.2000
     number of iterations used =            8  plain     mixing
     Exchange-correlation      = SLA PW PBX PBC ( 1  4  3  4 0 0)

     celldm(1)=   5.700000  celldm(2)=   0.000000  celldm(3)=   0.000000
     celldm(4)=   0.000000  celldm(5)=   0.000000  celldm(6)=   0.000000

     crystal axes: (cart. coord. in units of alat)
               a(1) = (  -0.500000   0.000000   0.500000 )  
               a(2) = (   0.000000   0.500000   0.500000 )  
               a(3) = (  -0.500000   0.500000   0.000000 )  

     reciprocal axes: (cart. coord. in units 2 pi/alat)
               b(1) = ( -1.000000 -1.000000  1.000000 )  
               b(2) = (  1.000000  1.000000  1.000000 )  
               b(3) = ( -1.000000  1.000000 -1.000000 )  


     PseudoPot. # 1 for C  read from file:
     ../../pseudo/C.pbe-n-kjpaw_psl.1.0.0.UPF
     MD5 check sum: 5f16ad9a65e90284d1d834d4ab3b0f7d
     Pseudo is Projector augmented-wave + core cor, Zval =  4.0
     Generated using "atomic" code by A. Dal Corso v.6.3
     Shape of augmentation charge: PSQ
     Using radial grid of 1073 points,  4 beta functions with: 
                l(1) =   0
                l(2) =   0
                l(3) =   1
                l(4) =   1
     Q(r) pseudized with 0 coefficients 


     atomic species   valence    mass     pseudopotential
        C              4.00    12.00000     C ( 1.00)

     48 Sym. Ops., with inversion, found (36 have fractional translation)



   Cartesian axes

     site n.     atom                  positions (alat units)
         1           C   tau(   1) = (  -0.1250000   0.1250000   0.1250000  )
         2           C   tau(   2) = (  -0.8750000   0.8750000   0.8750000  )

     number of k points=     8
                       cart. coord. in units 2pi/alat
        k(    1) = (   0.0000000   0.0000000   0.0000000), wk =   0.0312500
        k(    2) = (  -0.2500000   0.2500000  -0.2500000), wk =   0.2500000
        k(    3) = (   0.5000000  -0.5000000   0.5000000), wk =   0.1250000
        k(    4) = (   0.0000000   0.5000000   0.0000000), wk =   0.1875000
        k(    5) = (   0.7500000  -0.2500000   0.7500000), wk =   0.7500000
        k(    6) = (   0.5000000   0.0000000   0.5000000), wk =   0.3750000
        k(    7) = (   0.0000000  -1.0000000   0.0000000), wk =   0.0937500
        k(    8) = (  -0.5000000  -1.0000000   0.0000000), wk =   0.1875000

     Dense  grid:     5329 G-vectors     FFT dimensions: (  30,  30,  30)

     Estimated max dynamical RAM per process >       8.65 MB

     Check: negative core charge=   -0.000012

     Initial potential from superposition of free atoms

     starting charge    7.99992, renormalised to    8.00000
     Starting wfcs are    8 randomized atomic wfcs
     Checking if some PAW data can be deallocated... 

     total cpu time spent up to now is        0.5 secs

     Self-consistent Calculation

     iteration #  1     ecut=    90.00 Ry     beta= 0.20
     Davidson diagonalization with overlap
     ethr =  1.00E-04,  avg # of iterations =  3.9

     total cpu time spent up to now is        0.8 secs

     total energy              =     -36.54655495 Ry
     Harris-Foulkes estimate   =     -36.61777186 Ry
     estimated scf accuracy    <       0.31019316 Ry

     iteration #  2     ecut=    90.00 Ry     beta= 0.20
     Davidson diagonalization with overlap
     ethr =  3.88E-03,  avg # of iterations =  1.0

     total cpu time spent up to now is        1.1 secs

     total energy              =     -36.44973346 Ry
     Harris-Foulkes estimate   =     -36.54861892 Ry
     estimated scf accuracy    <       0.17457196 Ry

     iteration #  3     ecut=    90.00 Ry     beta= 0.20
     Davidson diagonalization with overlap
     ethr =  2.18E-03,  avg # of iterations =  2.0

     total cpu time spent up to now is        1.3 secs

     total energy              =     -36.46817420 Ry
     Harris-Foulkes estimate   =     -36.46818491 Ry
     estimated scf accuracy    <       0.00039422 Ry

     iteration #  4     ecut=    90.00 Ry     beta= 0.20
     Davidson diagonalization with overlap
     ethr =  4.93E-06,  avg # of iterations =  3.0

     total cpu time spent up to now is        1.5 secs

     total energy              =     -36.46876297 Ry
     Harris-Foulkes estimate   =     -36.46876223 Ry
     estimated scf accuracy    <       0.00015487 Ry

     iteration #  5     ecut=    90.00 Ry     beta= 0.20
     Davidson diagonalization with overlap
     ethr =  1.94E-06,  avg # of iterations =  1.5

     total cpu time spent up to now is        1.7 secs

     total energy              =     -36.46877685 Ry
     Harris-Foulkes estimate   =     -36.46877790 Ry
     estimated scf accuracy    <       0.00000966 Ry

     iteration #  6     ecut=    90.00 Ry     beta= 0.20
     Davidson diagonalization with overlap
     ethr =  1.21E-07,  avg # of iterations =  1.2

     total cpu time spent up to now is        1.8 secs

     total energy              =     -36.46877647 Ry
     Harris-Foulkes estimate   =     -36.46877747 Ry
     estimated scf accuracy    <       0.00000392 Ry

     iteration #  7     ecut=    90.00 Ry     beta= 0.20
     Davidson diagonalization with overlap
     ethr =  4.90E-08,  avg # of iterations =  1.2

     total cpu time spent up to now is        2.0 secs

     total energy              =     -36.46877671 Ry
     Harris-Foulkes estimate   =     -36.46877672 Ry
     estimated scf accuracy    <       0.00000001 Ry

     iteration #  8     ecut=    90.00 Ry     beta= 0.20
     Davidson diagonalization with overlap
     ethr =  1.29E-10,  avg # of iterations =  3.2

     total cpu time spent up to now is        2.4 secs

     total energy              =     -36.46877674 Ry
     Harris-Foulkes estimate   =     -36.46877674 Ry
     estimated scf accuracy    <       0.00000002 Ry

     iteration #  9     ecut=    90.00 Ry     beta= 0.20
     Davidson diagonalization with overlap
     ethr =  1.29E-10,  avg # of iterations =  1.0

     total cpu time spent up to now is        2.6 secs

     total energy              =     -36.46877674 Ry
     Harris-Foulkes estimate   =     -36.46877674 Ry
     estimated scf accuracy    <       0.00000002 Ry

     iteration # 10     ecut=    90.00 Ry     beta= 0.20
     Davidson diagonalization with overlap
     ethr =  1.29E-10,  avg # of iterations =  1.9

     total cpu time spent up to now is        2.8 secs

     End of self-consistent calculation

          k = 0.0000 0.0000 0.0000 (   645 PWs)   bands (ev):

    -5.0071  24.5479  24.5479  24.5479

          k =-0.2500 0.2500-0.2500 (   655 PWs)   bands (ev):

    -2.6555  14.9666  21.7222  21.7222

          k = 0.5000-0.5000 0.5000 (   652 PWs)   bands (ev):

     4.1345   4.3753  20.1589  20.1589

          k = 0.0000 0.5000 0.0000 (   649 PWs)   bands (ev):

    -1.8665  17.7991  17.7991  19.1848

          k = 0.7500-0.2500 0.7500 (   672 PWs)   bands (ev):

     3.5113   9.2113  14.7398  16.7028

          k = 0.5000 0.0000 0.5000 (   670 PWs)   bands (ev):

     1.2105  12.5860  12.9019  19.7295

          k = 0.0000-1.0000 0.0000 (   692 PWs)   bands (ev):

     7.2642   7.2642  14.4760  14.4760

          k =-0.5000-1.0000 0.0000 (   684 PWs)   bands (ev):

     9.3073   9.3073  10.7508  10.7508

     highest occupied level (ev):    24.5479

!    total energy              =     -36.46877674 Ry
     Harris-Foulkes estimate   =     -36.46877674 Ry
     estimated scf accuracy    <          2.7E-11 Ry

     total all-electron energy =      -151.996971 Ry

     The total energy is the sum of the following terms:

     one-electron contribution =      15.00128238 Ry
     hartree contribution      =       1.49552103 Ry
     xc contribution           =     -10.36060701 Ry
     ewald contribution        =     -30.24167350 Ry
     one-center paw contrib.   =     -12.36329963 Ry

     convergence has been achieved in  10 iterations

     Writing output data file diamond.save/

     init_run     :      0.37s CPU      0.28s WALL (       1 calls)
     electrons    :      5.05s CPU      2.33s WALL (       1 calls)

     Called by init_run:
     wfcinit      :      0.19s CPU      0.11s WALL (       1 calls)
     potinit      :      0.05s CPU      0.05s WALL (       1 calls)
     hinit0       :      0.11s CPU      0.11s WALL (       1 calls)

     Called by electrons:
     c_bands      :      2.33s CPU      1.11s WALL (      10 calls)
     sum_band     :      0.65s CPU      0.30s WALL (      10 calls)
     v_of_rho     :      0.41s CPU      0.18s WALL (      11 calls)
     newd         :      0.08s CPU      0.10s WALL (      11 calls)
     PAW_pot      :      1.56s CPU      0.68s WALL (      11 calls)
     mix_rho      :      0.05s CPU      0.02s WALL (      10 calls)

     Called by c_bands:
     init_us_2    :      0.05s CPU      0.02s WALL (     168 calls)
     cegterg      :      2.24s CPU      1.07s WALL (      80 calls)

     Called by sum_band:
     sum_band:bec :      0.00s CPU      0.00s WALL (      80 calls)
     addusdens    :      0.11s CPU      0.06s WALL (      10 calls)

     Called by *egterg:
     h_psi        :      2.28s CPU      1.10s WALL (     248 calls)
     s_psi        :      0.02s CPU      0.01s WALL (     248 calls)
     g_psi        :      0.00s CPU      0.00s WALL (     160 calls)
     cdiaghg      :      0.06s CPU      0.03s WALL (     240 calls)

     Called by h_psi:
     h_psi:pot    :      2.28s CPU      1.10s WALL (     248 calls)
     h_psi:calbec :      0.54s CPU      0.39s WALL (     248 calls)
     vloc_psi     :      1.72s CPU      0.70s WALL (     248 calls)
     add_vuspsi   :      0.01s CPU      0.01s WALL (     248 calls)

     General routines
     calbec       :      0.61s CPU      0.45s WALL (     328 calls)
     fft          :      0.30s CPU      0.12s WALL (     121 calls)
     ffts         :      0.02s CPU      0.01s WALL (      10 calls)
     fftw         :      1.90s CPU      0.76s WALL (    2160 calls)

     Parallel routines

     PWSCF        :      5.61s CPU      2.80s WALL


   This run was terminated on:  20:21:31  12May2023            

=------------------------------------------------------------------------------=
   JOB DONE.
=------------------------------------------------------------------------------=
