
     Program PWSCF v.6.4.1 starts on 12May2023 at 20:21:59 

     This program is part of the open-source Quantum ESPRESSO suite
     for quantum simulation of materials; please cite
         "P. Giannozzi et al., J. Phys.:Condens. Matter 21 395502 (2009);
         "P. Giannozzi et al., J. Phys.:Condens. Matter 29 465901 (2017);
          URL http://www.quantum-espresso.org", 
     in publications or presentations arising from this work. More details at
     http://www.quantum-espresso.org/quote

     Parallel version (MPI), running on     1 processors

     MPI processes distributed on     1 nodes
     Waiting for input...
     Reading input from standard input

     Current dimensions of program PWSCF are:
     Max number of different atomic species (ntypx) = 10
     Max number of k-points (npk) =  40000
     Max angular momentum in pseudopotentials (lmaxx) =  3
               file C.pbe-n-kjpaw_psl.1.0.0.UPF: wavefunction(s)  2S 2P renormalized

     Subspace diagonalization in iterative solution of the eigenvalue problem:
     a serial algorithm will be used


     G-vector sticks info
     --------------------
     sticks:   dense  smooth     PW     G-vecs:    dense   smooth      PW
     Sum         547     547    163                 8363     8363    1411



     bravais-lattice index     =            2
     lattice parameter (alat)  =       6.6000  a.u.
     unit-cell volume          =      71.8740 (a.u.)^3
     number of atoms/cell      =            2
     number of atomic types    =            1
     number of electrons       =         8.00
     number of Kohn-Sham states=            4
     kinetic-energy cutoff     =      90.0000  Ry
     charge density cutoff     =     360.0000  Ry
     convergence threshold     =      1.0E-08
     mixing beta               =       0.2000
     number of iterations used =            8  plain     mixing
     Exchange-correlation      = SLA PW PBX PBC ( 1  4  3  4 0 0)

     celldm(1)=   6.600000  celldm(2)=   0.000000  celldm(3)=   0.000000
     celldm(4)=   0.000000  celldm(5)=   0.000000  celldm(6)=   0.000000

     crystal axes: (cart. coord. in units of alat)
               a(1) = (  -0.500000   0.000000   0.500000 )  
               a(2) = (   0.000000   0.500000   0.500000 )  
               a(3) = (  -0.500000   0.500000   0.000000 )  

     reciprocal axes: (cart. coord. in units 2 pi/alat)
               b(1) = ( -1.000000 -1.000000  1.000000 )  
               b(2) = (  1.000000  1.000000  1.000000 )  
               b(3) = ( -1.000000  1.000000 -1.000000 )  


     PseudoPot. # 1 for C  read from file:
     ../../pseudo/C.pbe-n-kjpaw_psl.1.0.0.UPF
     MD5 check sum: 5f16ad9a65e90284d1d834d4ab3b0f7d
     Pseudo is Projector augmented-wave + core cor, Zval =  4.0
     Generated using "atomic" code by A. Dal Corso v.6.3
     Shape of augmentation charge: PSQ
     Using radial grid of 1073 points,  4 beta functions with: 
                l(1) =   0
                l(2) =   0
                l(3) =   1
                l(4) =   1
     Q(r) pseudized with 0 coefficients 


     atomic species   valence    mass     pseudopotential
        C              4.00    12.00000     C ( 1.00)

     48 Sym. Ops., with inversion, found (36 have fractional translation)



   Cartesian axes

     site n.     atom                  positions (alat units)
         1           C   tau(   1) = (  -0.1250000   0.1250000   0.1250000  )
         2           C   tau(   2) = (  -0.8750000   0.8750000   0.8750000  )

     number of k points=     8
                       cart. coord. in units 2pi/alat
        k(    1) = (   0.0000000   0.0000000   0.0000000), wk =   0.0312500
        k(    2) = (  -0.2500000   0.2500000  -0.2500000), wk =   0.2500000
        k(    3) = (   0.5000000  -0.5000000   0.5000000), wk =   0.1250000
        k(    4) = (   0.0000000   0.5000000   0.0000000), wk =   0.1875000
        k(    5) = (   0.7500000  -0.2500000   0.7500000), wk =   0.7500000
        k(    6) = (   0.5000000   0.0000000   0.5000000), wk =   0.3750000
        k(    7) = (   0.0000000  -1.0000000   0.0000000), wk =   0.0937500
        k(    8) = (  -0.5000000  -1.0000000   0.0000000), wk =   0.1875000

     Dense  grid:     8363 G-vectors     FFT dimensions: (  30,  30,  30)

     Estimated max dynamical RAM per process >      12.35 MB

     Check: negative core charge=   -0.000012

     Initial potential from superposition of free atoms

     starting charge    7.99992, renormalised to    8.00000
     Starting wfcs are    8 randomized atomic wfcs
     Checking if some PAW data can be deallocated... 

     total cpu time spent up to now is        0.5 secs

     Self-consistent Calculation

     iteration #  1     ecut=    90.00 Ry     beta= 0.20
     Davidson diagonalization with overlap
     ethr =  1.00E-04,  avg # of iterations =  3.9

     total cpu time spent up to now is        0.8 secs

     total energy              =     -36.88156473 Ry
     Harris-Foulkes estimate   =     -36.90918542 Ry
     estimated scf accuracy    <       0.14027198 Ry

     iteration #  2     ecut=    90.00 Ry     beta= 0.20
     Davidson diagonalization with overlap
     ethr =  1.75E-03,  avg # of iterations =  1.0

     total cpu time spent up to now is        1.0 secs

     total energy              =     -36.84471144 Ry
     Harris-Foulkes estimate   =     -36.88245675 Ry
     estimated scf accuracy    <       0.07905704 Ry

     iteration #  3     ecut=    90.00 Ry     beta= 0.20
     Davidson diagonalization with overlap
     ethr =  9.88E-04,  avg # of iterations =  1.6

     total cpu time spent up to now is        1.1 secs

     total energy              =     -36.85220713 Ry
     Harris-Foulkes estimate   =     -36.85221985 Ry
     estimated scf accuracy    <       0.00050745 Ry

     iteration #  4     ecut=    90.00 Ry     beta= 0.20
     Davidson diagonalization with overlap
     ethr =  6.34E-06,  avg # of iterations =  2.6

     total cpu time spent up to now is        1.4 secs

     total energy              =     -36.85253153 Ry
     Harris-Foulkes estimate   =     -36.85252380 Ry
     estimated scf accuracy    <       0.00003333 Ry

     iteration #  5     ecut=    90.00 Ry     beta= 0.20
     Davidson diagonalization with overlap
     ethr =  4.17E-07,  avg # of iterations =  1.9

     total cpu time spent up to now is        1.7 secs

     total energy              =     -36.85253622 Ry
     Harris-Foulkes estimate   =     -36.85253531 Ry
     estimated scf accuracy    <       0.00000165 Ry

     iteration #  6     ecut=    90.00 Ry     beta= 0.20
     Davidson diagonalization with overlap
     ethr =  2.07E-08,  avg # of iterations =  2.0

     total cpu time spent up to now is        1.9 secs

     total energy              =     -36.85253661 Ry
     Harris-Foulkes estimate   =     -36.85253641 Ry
     estimated scf accuracy    <       0.00000061 Ry

     iteration #  7     ecut=    90.00 Ry     beta= 0.20
     Davidson diagonalization with overlap
     ethr =  7.67E-09,  avg # of iterations =  2.0

     total cpu time spent up to now is        2.1 secs

     total energy              =     -36.85253671 Ry
     Harris-Foulkes estimate   =     -36.85253670 Ry
     estimated scf accuracy    <       0.00000002 Ry

     iteration #  8     ecut=    90.00 Ry     beta= 0.20
     Davidson diagonalization with overlap
     ethr =  1.94E-10,  avg # of iterations =  2.6

     total cpu time spent up to now is        2.3 secs

     total energy              =     -36.85253672 Ry
     Harris-Foulkes estimate   =     -36.85253671 Ry
     estimated scf accuracy    <       0.00000001 Ry

     iteration #  9     ecut=    90.00 Ry     beta= 0.20
     Davidson diagonalization with overlap
     ethr =  1.70E-10,  avg # of iterations =  1.9

     total cpu time spent up to now is        2.5 secs

     End of self-consistent calculation

          k = 0.0000 0.0000 0.0000 (  1037 PWs)   bands (ev):

    -7.8053  14.5551  14.5551  14.5551

          k =-0.2500 0.2500-0.2500 (  1029 PWs)   bands (ev):

    -6.0134   7.6451  12.6939  12.6939

          k = 0.5000-0.5000 0.5000 (  1056 PWs)   bands (ev):

    -1.6540   0.4421  11.5817  11.5817

          k = 0.0000 0.5000 0.0000 (  1022 PWs)   bands (ev):

    -5.4196   9.9579  10.1539  10.1539

          k = 0.7500-0.2500 0.7500 (  1039 PWs)   bands (ev):

    -1.4825   3.2845   7.4650   9.3605

          k = 0.5000 0.0000 0.5000 (  1029 PWs)   bands (ev):

    -3.1258   5.5188   6.4884  11.3493

          k = 0.0000-1.0000 0.0000 (  1034 PWs)   bands (ev):

     1.3175   1.3175   7.8512   7.8512

          k =-0.5000-1.0000 0.0000 (  1048 PWs)   bands (ev):

     2.2185   2.2185   5.6550   5.6550

     highest occupied level (ev):    14.5551

!    total energy              =     -36.85253672 Ry
     Harris-Foulkes estimate   =     -36.85253672 Ry
     estimated scf accuracy    <          1.2E-10 Ry

     total all-electron energy =      -152.380731 Ry

     The total energy is the sum of the following terms:

     one-electron contribution =       9.19200682 Ry
     hartree contribution      =       1.89226070 Ry
     xc contribution           =      -9.49232516 Ry
     ewald contribution        =     -26.11780870 Ry
     one-center paw contrib.   =     -12.32667038 Ry

     convergence has been achieved in   9 iterations

     Writing output data file diamond.save/

     init_run     :      0.43s CPU      0.29s WALL (       1 calls)
     electrons    :      4.67s CPU      2.01s WALL (       1 calls)

     Called by init_run:
     wfcinit      :      0.25s CPU      0.11s WALL (       1 calls)
     potinit      :      0.05s CPU      0.05s WALL (       1 calls)
     hinit0       :      0.12s CPU      0.12s WALL (       1 calls)

     Called by electrons:
     c_bands      :      2.17s CPU      0.94s WALL (       9 calls)
     sum_band     :      0.55s CPU      0.25s WALL (       9 calls)
     v_of_rho     :      0.38s CPU      0.15s WALL (      10 calls)
     newd         :      0.12s CPU      0.09s WALL (      10 calls)
     PAW_pot      :      1.43s CPU      0.61s WALL (      10 calls)
     mix_rho      :      0.06s CPU      0.02s WALL (       9 calls)

     Called by c_bands:
     init_us_2    :      0.06s CPU      0.03s WALL (     152 calls)
     cegterg      :      2.06s CPU      0.90s WALL (      72 calls)

     Called by sum_band:
     sum_band:bec :      0.00s CPU      0.00s WALL (      72 calls)
     addusdens    :      0.09s CPU      0.05s WALL (       9 calls)

     Called by *egterg:
     h_psi        :      2.14s CPU      0.93s WALL (     236 calls)
     s_psi        :      0.03s CPU      0.02s WALL (     236 calls)
     g_psi        :      0.01s CPU      0.00s WALL (     156 calls)
     cdiaghg      :      0.03s CPU      0.01s WALL (     228 calls)

     Called by h_psi:
     h_psi:pot    :      2.14s CPU      0.93s WALL (     236 calls)
     h_psi:calbec :      0.24s CPU      0.21s WALL (     236 calls)
     vloc_psi     :      1.87s CPU      0.71s WALL (     236 calls)
     add_vuspsi   :      0.03s CPU      0.01s WALL (     236 calls)

     General routines
     calbec       :      0.30s CPU      0.24s WALL (     308 calls)
     fft          :      0.26s CPU      0.11s WALL (     110 calls)
     ffts         :      0.01s CPU      0.01s WALL (       9 calls)
     fftw         :      2.00s CPU      0.77s WALL (    1978 calls)

     Parallel routines

     PWSCF        :      5.29s CPU      2.48s WALL


   This run was terminated on:  20:22: 2  12May2023            

=------------------------------------------------------------------------------=
   JOB DONE.
=------------------------------------------------------------------------------=
