
     Program PWSCF v.6.4.1 starts on 12May2023 at 20:21:23 

     This program is part of the open-source Quantum ESPRESSO suite
     for quantum simulation of materials; please cite
         "P. Giannozzi et al., J. Phys.:Condens. Matter 21 395502 (2009);
         "P. Giannozzi et al., J. Phys.:Condens. Matter 29 465901 (2017);
          URL http://www.quantum-espresso.org", 
     in publications or presentations arising from this work. More details at
     http://www.quantum-espresso.org/quote

     Parallel version (MPI), running on     1 processors

     MPI processes distributed on     1 nodes
     Waiting for input...
     Reading input from standard input

     Current dimensions of program PWSCF are:
     Max number of different atomic species (ntypx) = 10
     Max number of k-points (npk) =  40000
     Max angular momentum in pseudopotentials (lmaxx) =  3
               file C.pbe-n-kjpaw_psl.1.0.0.UPF: wavefunction(s)  2S 2P renormalized

     Subspace diagonalization in iterative solution of the eigenvalue problem:
     a serial algorithm will be used


     G-vector sticks info
     --------------------
     sticks:   dense  smooth     PW     G-vecs:    dense   smooth      PW
     Sum         379     379    121                 4813     4813     893



     bravais-lattice index     =            2
     lattice parameter (alat)  =       5.5000  a.u.
     unit-cell volume          =      41.5938 (a.u.)^3
     number of atoms/cell      =            2
     number of atomic types    =            1
     number of electrons       =         8.00
     number of Kohn-Sham states=            4
     kinetic-energy cutoff     =      90.0000  Ry
     charge density cutoff     =     360.0000  Ry
     convergence threshold     =      1.0E-08
     mixing beta               =       0.2000
     number of iterations used =            8  plain     mixing
     Exchange-correlation      = SLA PW PBX PBC ( 1  4  3  4 0 0)

     celldm(1)=   5.500000  celldm(2)=   0.000000  celldm(3)=   0.000000
     celldm(4)=   0.000000  celldm(5)=   0.000000  celldm(6)=   0.000000

     crystal axes: (cart. coord. in units of alat)
               a(1) = (  -0.500000   0.000000   0.500000 )  
               a(2) = (   0.000000   0.500000   0.500000 )  
               a(3) = (  -0.500000   0.500000   0.000000 )  

     reciprocal axes: (cart. coord. in units 2 pi/alat)
               b(1) = ( -1.000000 -1.000000  1.000000 )  
               b(2) = (  1.000000  1.000000  1.000000 )  
               b(3) = ( -1.000000  1.000000 -1.000000 )  


     PseudoPot. # 1 for C  read from file:
     ../../pseudo/C.pbe-n-kjpaw_psl.1.0.0.UPF
     MD5 check sum: 5f16ad9a65e90284d1d834d4ab3b0f7d
     Pseudo is Projector augmented-wave + core cor, Zval =  4.0
     Generated using "atomic" code by A. Dal Corso v.6.3
     Shape of augmentation charge: PSQ
     Using radial grid of 1073 points,  4 beta functions with: 
                l(1) =   0
                l(2) =   0
                l(3) =   1
                l(4) =   1
     Q(r) pseudized with 0 coefficients 


     atomic species   valence    mass     pseudopotential
        C              4.00    12.00000     C ( 1.00)

     48 Sym. Ops., with inversion, found (36 have fractional translation)



   Cartesian axes

     site n.     atom                  positions (alat units)
         1           C   tau(   1) = (  -0.1250000   0.1250000   0.1250000  )
         2           C   tau(   2) = (  -0.8750000   0.8750000   0.8750000  )

     number of k points=     8
                       cart. coord. in units 2pi/alat
        k(    1) = (   0.0000000   0.0000000   0.0000000), wk =   0.0312500
        k(    2) = (  -0.2500000   0.2500000  -0.2500000), wk =   0.2500000
        k(    3) = (   0.5000000  -0.5000000   0.5000000), wk =   0.1250000
        k(    4) = (   0.0000000   0.5000000   0.0000000), wk =   0.1875000
        k(    5) = (   0.7500000  -0.2500000   0.7500000), wk =   0.7500000
        k(    6) = (   0.5000000   0.0000000   0.5000000), wk =   0.3750000
        k(    7) = (   0.0000000  -1.0000000   0.0000000), wk =   0.0937500
        k(    8) = (  -0.5000000  -1.0000000   0.0000000), wk =   0.1875000

     Dense  grid:     4813 G-vectors     FFT dimensions: (  24,  24,  24)

     Estimated max dynamical RAM per process >       7.11 MB

     Check: negative core charge=   -0.000013

     Initial potential from superposition of free atoms

     starting charge    7.99992, renormalised to    8.00000
     Starting wfcs are    8 randomized atomic wfcs
     Checking if some PAW data can be deallocated... 

     total cpu time spent up to now is        0.4 secs

     Self-consistent Calculation

     iteration #  1     ecut=    90.00 Ry     beta= 0.20
     Davidson diagonalization with overlap
     ethr =  1.00E-04,  avg # of iterations =  3.9

     total cpu time spent up to now is        0.5 secs

     total energy              =     -36.34919802 Ry
     Harris-Foulkes estimate   =     -36.43391781 Ry
     estimated scf accuracy    <       0.35982002 Ry

     iteration #  2     ecut=    90.00 Ry     beta= 0.20
     Davidson diagonalization with overlap
     ethr =  4.50E-03,  avg # of iterations =  1.0

     total cpu time spent up to now is        0.6 secs

     total energy              =     -36.23372878 Ry
     Harris-Foulkes estimate   =     -36.35160134 Ry
     estimated scf accuracy    <       0.20270606 Ry

     iteration #  3     ecut=    90.00 Ry     beta= 0.20
     Davidson diagonalization with overlap
     ethr =  2.53E-03,  avg # of iterations =  2.0

     total cpu time spent up to now is        0.8 secs

     total energy              =     -36.25538165 Ry
     Harris-Foulkes estimate   =     -36.25539590 Ry
     estimated scf accuracy    <       0.00037806 Ry

     iteration #  4     ecut=    90.00 Ry     beta= 0.20
     Davidson diagonalization with overlap
     ethr =  4.73E-06,  avg # of iterations =  3.0

     total cpu time spent up to now is        0.9 secs

     total energy              =     -36.25606684 Ry
     Harris-Foulkes estimate   =     -36.25606506 Ry
     estimated scf accuracy    <       0.00016544 Ry

     iteration #  5     ecut=    90.00 Ry     beta= 0.20
     Davidson diagonalization with overlap
     ethr =  2.07E-06,  avg # of iterations =  1.5

     total cpu time spent up to now is        1.0 secs

     total energy              =     -36.25608104 Ry
     Harris-Foulkes estimate   =     -36.25608288 Ry
     estimated scf accuracy    <       0.00001353 Ry

     iteration #  6     ecut=    90.00 Ry     beta= 0.20
     Davidson diagonalization with overlap
     ethr =  1.69E-07,  avg # of iterations =  1.0

     total cpu time spent up to now is        1.1 secs

     total energy              =     -36.25608053 Ry
     Harris-Foulkes estimate   =     -36.25608171 Ry
     estimated scf accuracy    <       0.00000449 Ry

     iteration #  7     ecut=    90.00 Ry     beta= 0.20
     Davidson diagonalization with overlap
     ethr =  5.61E-08,  avg # of iterations =  1.1

     total cpu time spent up to now is        1.2 secs

     total energy              =     -36.25608077 Ry
     Harris-Foulkes estimate   =     -36.25608078 Ry
     estimated scf accuracy    <       0.00000002 Ry

     iteration #  8     ecut=    90.00 Ry     beta= 0.20
     Davidson diagonalization with overlap
     ethr =  2.28E-10,  avg # of iterations =  3.1

     total cpu time spent up to now is        1.3 secs

     total energy              =     -36.25608080 Ry
     Harris-Foulkes estimate   =     -36.25608080 Ry
     estimated scf accuracy    <       0.00000002 Ry

     iteration #  9     ecut=    90.00 Ry     beta= 0.20
     Davidson diagonalization with overlap
     ethr =  2.28E-10,  avg # of iterations =  1.0

     total cpu time spent up to now is        1.5 secs

     total energy              =     -36.25608080 Ry
     Harris-Foulkes estimate   =     -36.25608080 Ry
     estimated scf accuracy    <       0.00000002 Ry

     iteration # 10     ecut=    90.00 Ry     beta= 0.20
     Davidson diagonalization with overlap
     ethr =  2.18E-10,  avg # of iterations =  1.0

     total cpu time spent up to now is        1.7 secs

     End of self-consistent calculation

          k = 0.0000 0.0000 0.0000 (   609 PWs)   bands (ev):

    -4.0935  27.5386  27.5386  27.5386

          k =-0.2500 0.2500-0.2500 (   595 PWs)   bands (ev):

    -1.6056  17.1665  24.4208  24.4208

          k = 0.5000-0.5000 0.5000 (   610 PWs)   bands (ev):

     5.2122   6.2728  22.7295  22.7295

          k = 0.0000 0.5000 0.0000 (   592 PWs)   bands (ev):

    -0.7614  20.0770  20.0770  21.9344

          k = 0.7500-0.2500 0.7500 (   602 PWs)   bands (ev):

     4.9538  11.0226  16.9564  18.8939

          k = 0.5000 0.0000 0.5000 (   602 PWs)   bands (ev):

     2.4957  14.6750  14.9023  22.2343

          k = 0.0000-1.0000 0.0000 (   588 PWs)   bands (ev):

     9.0197   9.0197  16.4541  16.4541

          k =-0.5000-1.0000 0.0000 (   604 PWs)   bands (ev):

    11.4749  11.4749  12.2476  12.2476

     highest occupied level (ev):    27.5386

!    total energy              =     -36.25608080 Ry
     Harris-Foulkes estimate   =     -36.25608080 Ry
     estimated scf accuracy    <          1.1E-11 Ry

     total all-electron energy =      -151.784275 Ry

     The total energy is the sum of the following terms:

     one-electron contribution =      16.65442479 Ry
     hartree contribution      =       1.40933564 Ry
     xc contribution           =     -10.60197809 Ry
     ewald contribution        =     -31.34137044 Ry
     one-center paw contrib.   =     -12.37649270 Ry

     convergence has been achieved in  10 iterations

     Writing output data file diamond.save/

     init_run     :      0.26s CPU      0.22s WALL (       1 calls)
     electrons    :      2.90s CPU      1.28s WALL (       1 calls)

     Called by init_run:
     wfcinit      :      0.09s CPU      0.05s WALL (       1 calls)
     potinit      :      0.05s CPU      0.05s WALL (       1 calls)
     hinit0       :      0.11s CPU      0.11s WALL (       1 calls)

     Called by electrons:
     c_bands      :      0.78s CPU      0.36s WALL (      10 calls)
     sum_band     :      0.25s CPU      0.11s WALL (      10 calls)
     v_of_rho     :      0.12s CPU      0.05s WALL (      11 calls)
     newd         :      0.08s CPU      0.05s WALL (      11 calls)
     PAW_pot      :      1.69s CPU      0.75s WALL (      11 calls)
     mix_rho      :      0.02s CPU      0.01s WALL (      10 calls)

     Called by c_bands:
     init_us_2    :      0.04s CPU      0.02s WALL (     168 calls)
     cegterg      :      0.70s CPU      0.33s WALL (      80 calls)

     Called by sum_band:
     sum_band:bec :      0.00s CPU      0.00s WALL (      80 calls)
     addusdens    :      0.06s CPU      0.03s WALL (      10 calls)

     Called by *egterg:
     h_psi        :      0.69s CPU      0.34s WALL (     237 calls)
     s_psi        :      0.02s CPU      0.01s WALL (     237 calls)
     g_psi        :      0.00s CPU      0.00s WALL (     149 calls)
     cdiaghg      :      0.02s CPU      0.01s WALL (     229 calls)

     Called by h_psi:
     h_psi:pot    :      0.69s CPU      0.33s WALL (     237 calls)
     h_psi:calbec :      0.16s CPU      0.12s WALL (     237 calls)
     vloc_psi     :      0.52s CPU      0.21s WALL (     237 calls)
     add_vuspsi   :      0.02s CPU      0.01s WALL (     237 calls)

     General routines
     calbec       :      0.20s CPU      0.14s WALL (     317 calls)
     fft          :      0.05s CPU      0.02s WALL (     121 calls)
     ffts         :      0.00s CPU      0.00s WALL (      10 calls)
     fftw         :      0.52s CPU      0.21s WALL (    2134 calls)

     Parallel routines

     PWSCF        :      3.34s CPU      1.67s WALL


   This run was terminated on:  20:21:24  12May2023            

=------------------------------------------------------------------------------=
   JOB DONE.
=------------------------------------------------------------------------------=
