
     Program PWSCF v.6.4.1 starts on 12May2023 at 20:22: 3 

     This program is part of the open-source Quantum ESPRESSO suite
     for quantum simulation of materials; please cite
         "P. Giannozzi et al., J. Phys.:Condens. Matter 21 395502 (2009);
         "P. Giannozzi et al., J. Phys.:Condens. Matter 29 465901 (2017);
          URL http://www.quantum-espresso.org", 
     in publications or presentations arising from this work. More details at
     http://www.quantum-espresso.org/quote

     Parallel version (MPI), running on     1 processors

     MPI processes distributed on     1 nodes
     Waiting for input...
     Reading input from standard input

     Current dimensions of program PWSCF are:
     Max number of different atomic species (ntypx) = 10
     Max number of k-points (npk) =  40000
     Max angular momentum in pseudopotentials (lmaxx) =  3
               file C.pbe-n-kjpaw_psl.1.0.0.UPF: wavefunction(s)  2S 2P renormalized

     Subspace diagonalization in iterative solution of the eigenvalue problem:
     a serial algorithm will be used


     G-vector sticks info
     --------------------
     sticks:   dense  smooth     PW     G-vecs:    dense   smooth      PW
     Sum         559     559    163                 8657     8657    1459



     bravais-lattice index     =            2
     lattice parameter (alat)  =       6.7000  a.u.
     unit-cell volume          =      75.1908 (a.u.)^3
     number of atoms/cell      =            2
     number of atomic types    =            1
     number of electrons       =         8.00
     number of Kohn-Sham states=            4
     kinetic-energy cutoff     =      90.0000  Ry
     charge density cutoff     =     360.0000  Ry
     convergence threshold     =      1.0E-08
     mixing beta               =       0.2000
     number of iterations used =            8  plain     mixing
     Exchange-correlation      = SLA PW PBX PBC ( 1  4  3  4 0 0)

     celldm(1)=   6.700000  celldm(2)=   0.000000  celldm(3)=   0.000000
     celldm(4)=   0.000000  celldm(5)=   0.000000  celldm(6)=   0.000000

     crystal axes: (cart. coord. in units of alat)
               a(1) = (  -0.500000   0.000000   0.500000 )  
               a(2) = (   0.000000   0.500000   0.500000 )  
               a(3) = (  -0.500000   0.500000   0.000000 )  

     reciprocal axes: (cart. coord. in units 2 pi/alat)
               b(1) = ( -1.000000 -1.000000  1.000000 )  
               b(2) = (  1.000000  1.000000  1.000000 )  
               b(3) = ( -1.000000  1.000000 -1.000000 )  


     PseudoPot. # 1 for C  read from file:
     ../../pseudo/C.pbe-n-kjpaw_psl.1.0.0.UPF
     MD5 check sum: 5f16ad9a65e90284d1d834d4ab3b0f7d
     Pseudo is Projector augmented-wave + core cor, Zval =  4.0
     Generated using "atomic" code by A. Dal Corso v.6.3
     Shape of augmentation charge: PSQ
     Using radial grid of 1073 points,  4 beta functions with: 
                l(1) =   0
                l(2) =   0
                l(3) =   1
                l(4) =   1
     Q(r) pseudized with 0 coefficients 


     atomic species   valence    mass     pseudopotential
        C              4.00    12.00000     C ( 1.00)

     48 Sym. Ops., with inversion, found (36 have fractional translation)



   Cartesian axes

     site n.     atom                  positions (alat units)
         1           C   tau(   1) = (  -0.1250000   0.1250000   0.1250000  )
         2           C   tau(   2) = (  -0.8750000   0.8750000   0.8750000  )

     number of k points=     8
                       cart. coord. in units 2pi/alat
        k(    1) = (   0.0000000   0.0000000   0.0000000), wk =   0.0312500
        k(    2) = (  -0.2500000   0.2500000  -0.2500000), wk =   0.2500000
        k(    3) = (   0.5000000  -0.5000000   0.5000000), wk =   0.1250000
        k(    4) = (   0.0000000   0.5000000   0.0000000), wk =   0.1875000
        k(    5) = (   0.7500000  -0.2500000   0.7500000), wk =   0.7500000
        k(    6) = (   0.5000000   0.0000000   0.5000000), wk =   0.3750000
        k(    7) = (   0.0000000  -1.0000000   0.0000000), wk =   0.0937500
        k(    8) = (  -0.5000000  -1.0000000   0.0000000), wk =   0.1875000

     Dense  grid:     8657 G-vectors     FFT dimensions: (  30,  30,  30)

     Estimated max dynamical RAM per process >      12.72 MB

     Check: negative core charge=   -0.000013

     Initial potential from superposition of free atoms

     starting charge    7.99992, renormalised to    8.00000
     Starting wfcs are    8 randomized atomic wfcs
     Checking if some PAW data can be deallocated... 

     total cpu time spent up to now is        0.4 secs

     Self-consistent Calculation

     iteration #  1     ecut=    90.00 Ry     beta= 0.20
     Davidson diagonalization with overlap
     ethr =  1.00E-04,  avg # of iterations =  3.9

     total cpu time spent up to now is        0.8 secs

     total energy              =     -36.88315076 Ry
     Harris-Foulkes estimate   =     -36.90749861 Ry
     estimated scf accuracy    <       0.12699534 Ry

     iteration #  2     ecut=    90.00 Ry     beta= 0.20
     Davidson diagonalization with overlap
     ethr =  1.59E-03,  avg # of iterations =  1.0

     total cpu time spent up to now is        1.0 secs

     total energy              =     -36.85075069 Ry
     Harris-Foulkes estimate   =     -36.88395082 Ry
     estimated scf accuracy    <       0.07166094 Ry

     iteration #  3     ecut=    90.00 Ry     beta= 0.20
     Davidson diagonalization with overlap
     ethr =  8.96E-04,  avg # of iterations =  1.6

     total cpu time spent up to now is        1.1 secs

     total energy              =     -36.85741979 Ry
     Harris-Foulkes estimate   =     -36.85743437 Ry
     estimated scf accuracy    <       0.00051837 Ry

     iteration #  4     ecut=    90.00 Ry     beta= 0.20
     Davidson diagonalization with overlap
     ethr =  6.48E-06,  avg # of iterations =  2.6

     total cpu time spent up to now is        1.4 secs

     total energy              =     -36.85770584 Ry
     Harris-Foulkes estimate   =     -36.85769816 Ry
     estimated scf accuracy    <       0.00002584 Ry

     iteration #  5     ecut=    90.00 Ry     beta= 0.20
     Davidson diagonalization with overlap
     ethr =  3.23E-07,  avg # of iterations =  1.9

     total cpu time spent up to now is        1.6 secs

     total energy              =     -36.85770989 Ry
     Harris-Foulkes estimate   =     -36.85770900 Ry
     estimated scf accuracy    <       0.00000131 Ry

     iteration #  6     ecut=    90.00 Ry     beta= 0.20
     Davidson diagonalization with overlap
     ethr =  1.64E-08,  avg # of iterations =  2.1

     total cpu time spent up to now is        1.9 secs

     total energy              =     -36.85771033 Ry
     Harris-Foulkes estimate   =     -36.85771006 Ry
     estimated scf accuracy    <       0.00000046 Ry

     iteration #  7     ecut=    90.00 Ry     beta= 0.20
     Davidson diagonalization with overlap
     ethr =  5.77E-09,  avg # of iterations =  2.0

     total cpu time spent up to now is        2.1 secs

     End of self-consistent calculation

          k = 0.0000 0.0000 0.0000 (  1067 PWs)   bands (ev):

    -8.0239  13.7111  13.7111  13.7111

          k =-0.2500 0.2500-0.2500 (  1083 PWs)   bands (ev):

    -6.2871   7.0244  11.9306  11.9306

          k = 0.5000-0.5000 0.5000 (  1068 PWs)   bands (ev):

    -2.1411   0.1190  10.8584  10.8584

          k = 0.0000 0.5000 0.0000 (  1094 PWs)   bands (ev):

    -5.7109   9.1704   9.5055   9.5055

          k = 0.7500-0.2500 0.7500 (  1088 PWs)   bands (ev):

    -1.9160   2.7810   6.8651   8.7388

          k = 0.5000 0.0000 0.5000 (  1081 PWs)   bands (ev):

    -3.4960   4.9105   5.9658  10.6409

          k = 0.0000-1.0000 0.0000 (  1106 PWs)   bands (ev):

     0.8063   0.8063   7.2907   7.2907

          k =-0.5000-1.0000 0.0000 (  1084 PWs)   bands (ev):

     1.6289   1.6289   5.2166   5.2166

     highest occupied level (ev):    13.7111

!    total energy              =     -36.85771041 Ry
     Harris-Foulkes estimate   =     -36.85771040 Ry
     estimated scf accuracy    <          6.5E-09 Ry

     total all-electron energy =      -152.385905 Ry

     The total energy is the sum of the following terms:

     one-electron contribution =       8.67096994 Ry
     hartree contribution      =       1.93789450 Ry
     xc contribution           =      -9.41405624 Ry
     ewald contribution        =     -25.72799066 Ry
     one-center paw contrib.   =     -12.32452794 Ry

     convergence has been achieved in   7 iterations

     Writing output data file diamond.save/

     init_run     :      0.40s CPU      0.28s WALL (       1 calls)
     electrons    :      3.63s CPU      1.64s WALL (       1 calls)

     Called by init_run:
     wfcinit      :      0.18s CPU      0.07s WALL (       1 calls)
     potinit      :      0.05s CPU      0.05s WALL (       1 calls)
     hinit0       :      0.14s CPU      0.14s WALL (       1 calls)

     Called by electrons:
     c_bands      :      1.74s CPU      0.77s WALL (       7 calls)
     sum_band     :      0.46s CPU      0.22s WALL (       7 calls)
     v_of_rho     :      0.30s CPU      0.14s WALL (       8 calls)
     newd         :      0.06s CPU      0.05s WALL (       8 calls)
     PAW_pot      :      1.11s CPU      0.51s WALL (       8 calls)
     mix_rho      :      0.03s CPU      0.02s WALL (       7 calls)

     Called by c_bands:
     init_us_2    :      0.05s CPU      0.02s WALL (     120 calls)
     cegterg      :      1.65s CPU      0.73s WALL (      56 calls)

     Called by sum_band:
     sum_band:bec :      0.00s CPU      0.00s WALL (      56 calls)
     addusdens    :      0.07s CPU      0.03s WALL (       7 calls)

     Called by *egterg:
     h_psi        :      1.71s CPU      0.75s WALL (     185 calls)
     s_psi        :      0.02s CPU      0.01s WALL (     185 calls)
     g_psi        :      0.01s CPU      0.00s WALL (     121 calls)
     cdiaghg      :      0.02s CPU      0.01s WALL (     177 calls)

     Called by h_psi:
     h_psi:pot    :      1.71s CPU      0.75s WALL (     185 calls)
     h_psi:calbec :      0.15s CPU      0.13s WALL (     185 calls)
     vloc_psi     :      1.54s CPU      0.61s WALL (     185 calls)
     add_vuspsi   :      0.01s CPU      0.01s WALL (     185 calls)

     General routines
     calbec       :      0.23s CPU      0.18s WALL (     241 calls)
     fft          :      0.18s CPU      0.09s WALL (      88 calls)
     ffts         :      0.02s CPU      0.01s WALL (       7 calls)
     fftw         :      1.63s CPU      0.66s WALL (    1576 calls)

     Parallel routines

     PWSCF        :      4.22s CPU      2.10s WALL


   This run was terminated on:  20:22: 5  12May2023            

=------------------------------------------------------------------------------=
   JOB DONE.
=------------------------------------------------------------------------------=
