
     Program PWSCF v.6.4.1 starts on 12May2023 at 20:22:38 

     This program is part of the open-source Quantum ESPRESSO suite
     for quantum simulation of materials; please cite
         "P. Giannozzi et al., J. Phys.:Condens. Matter 21 395502 (2009);
         "P. Giannozzi et al., J. Phys.:Condens. Matter 29 465901 (2017);
          URL http://www.quantum-espresso.org", 
     in publications or presentations arising from this work. More details at
     http://www.quantum-espresso.org/quote

     Parallel version (MPI), running on     1 processors

     MPI processes distributed on     1 nodes
     Waiting for input...
     Reading input from standard input

     Current dimensions of program PWSCF are:
     Max number of different atomic species (ntypx) = 10
     Max number of k-points (npk) =  40000
     Max angular momentum in pseudopotentials (lmaxx) =  3
               file C.pbe-n-kjpaw_psl.1.0.0.UPF: wavefunction(s)  2S 2P renormalized

     Subspace diagonalization in iterative solution of the eigenvalue problem:
     a serial algorithm will be used


     G-vector sticks info
     --------------------
     sticks:   dense  smooth     PW     G-vecs:    dense   smooth      PW
     Sum         745     745    223                13635    13635    2229



     bravais-lattice index     =            2
     lattice parameter (alat)  =       7.8000  a.u.
     unit-cell volume          =     118.6380 (a.u.)^3
     number of atoms/cell      =            2
     number of atomic types    =            1
     number of electrons       =         8.00
     number of Kohn-Sham states=            4
     kinetic-energy cutoff     =      90.0000  Ry
     charge density cutoff     =     360.0000  Ry
     convergence threshold     =      1.0E-08
     mixing beta               =       0.2000
     number of iterations used =            8  plain     mixing
     Exchange-correlation      = SLA PW PBX PBC ( 1  4  3  4 0 0)

     celldm(1)=   7.800000  celldm(2)=   0.000000  celldm(3)=   0.000000
     celldm(4)=   0.000000  celldm(5)=   0.000000  celldm(6)=   0.000000

     crystal axes: (cart. coord. in units of alat)
               a(1) = (  -0.500000   0.000000   0.500000 )  
               a(2) = (   0.000000   0.500000   0.500000 )  
               a(3) = (  -0.500000   0.500000   0.000000 )  

     reciprocal axes: (cart. coord. in units 2 pi/alat)
               b(1) = ( -1.000000 -1.000000  1.000000 )  
               b(2) = (  1.000000  1.000000  1.000000 )  
               b(3) = ( -1.000000  1.000000 -1.000000 )  


     PseudoPot. # 1 for C  read from file:
     ../../pseudo/C.pbe-n-kjpaw_psl.1.0.0.UPF
     MD5 check sum: 5f16ad9a65e90284d1d834d4ab3b0f7d
     Pseudo is Projector augmented-wave + core cor, Zval =  4.0
     Generated using "atomic" code by A. Dal Corso v.6.3
     Shape of augmentation charge: PSQ
     Using radial grid of 1073 points,  4 beta functions with: 
                l(1) =   0
                l(2) =   0
                l(3) =   1
                l(4) =   1
     Q(r) pseudized with 0 coefficients 


     atomic species   valence    mass     pseudopotential
        C              4.00    12.00000     C ( 1.00)

     48 Sym. Ops., with inversion, found (36 have fractional translation)



   Cartesian axes

     site n.     atom                  positions (alat units)
         1           C   tau(   1) = (  -0.1250000   0.1250000   0.1250000  )
         2           C   tau(   2) = (  -0.8750000   0.8750000   0.8750000  )

     number of k points=     8
                       cart. coord. in units 2pi/alat
        k(    1) = (   0.0000000   0.0000000   0.0000000), wk =   0.0312500
        k(    2) = (  -0.2500000   0.2500000  -0.2500000), wk =   0.2500000
        k(    3) = (   0.5000000  -0.5000000   0.5000000), wk =   0.1250000
        k(    4) = (   0.0000000   0.5000000   0.0000000), wk =   0.1875000
        k(    5) = (   0.7500000  -0.2500000   0.7500000), wk =   0.7500000
        k(    6) = (   0.5000000   0.0000000   0.5000000), wk =   0.3750000
        k(    7) = (   0.0000000  -1.0000000   0.0000000), wk =   0.0937500
        k(    8) = (  -0.5000000  -1.0000000   0.0000000), wk =   0.1875000

     Dense  grid:    13635 G-vectors     FFT dimensions: (  36,  36,  36)

     Estimated max dynamical RAM per process >      20.13 MB

     Check: negative core charge=   -0.000012

     Initial potential from superposition of free atoms

     starting charge    7.99992, renormalised to    8.00000
     Starting wfcs are    8 randomized atomic wfcs
     Checking if some PAW data can be deallocated... 

     total cpu time spent up to now is        0.5 secs

     Self-consistent Calculation

     iteration #  1     ecut=    90.00 Ry     beta= 0.20
     Davidson diagonalization with overlap
     ethr =  1.00E-04,  avg # of iterations =  3.8

     total cpu time spent up to now is        0.8 secs

     total energy              =     -36.69959756 Ry
     Harris-Foulkes estimate   =     -36.70303905 Ry
     estimated scf accuracy    <       0.03976404 Ry

     iteration #  2     ecut=    90.00 Ry     beta= 0.20
     Davidson diagonalization with overlap
     ethr =  4.97E-04,  avg # of iterations =  1.0

     total cpu time spent up to now is        1.0 secs

     total energy              =     -36.69517487 Ry
     Harris-Foulkes estimate   =     -36.69978265 Ry
     estimated scf accuracy    <       0.02360044 Ry

     iteration #  3     ecut=    90.00 Ry     beta= 0.20
     Davidson diagonalization with overlap
     ethr =  2.95E-04,  avg # of iterations =  1.0

     total cpu time spent up to now is        1.4 secs

     total energy              =     -36.69646207 Ry
     Harris-Foulkes estimate   =     -36.69647478 Ry
     estimated scf accuracy    <       0.00041598 Ry

     iteration #  4     ecut=    90.00 Ry     beta= 0.20
     Davidson diagonalization with overlap
     ethr =  5.20E-06,  avg # of iterations =  2.1

     total cpu time spent up to now is        1.7 secs

     total energy              =     -36.69651822 Ry
     Harris-Foulkes estimate   =     -36.69653859 Ry
     estimated scf accuracy    <       0.00003871 Ry

     iteration #  5     ecut=    90.00 Ry     beta= 0.20
     Davidson diagonalization with overlap
     ethr =  4.84E-07,  avg # of iterations =  2.1

     total cpu time spent up to now is        2.0 secs

     total energy              =     -36.69652649 Ry
     Harris-Foulkes estimate   =     -36.69652650 Ry
     estimated scf accuracy    <       0.00000047 Ry

     iteration #  6     ecut=    90.00 Ry     beta= 0.20
     Davidson diagonalization with overlap
     ethr =  5.84E-09,  avg # of iterations =  3.5

     total cpu time spent up to now is        2.4 secs

     total energy              =     -36.69653419 Ry
     Harris-Foulkes estimate   =     -36.69652699 Ry
     estimated scf accuracy    <       0.00000027 Ry

     iteration #  7     ecut=    90.00 Ry     beta= 0.20
     Davidson diagonalization with overlap
     ethr =  3.34E-09,  avg # of iterations =  3.2

     total cpu time spent up to now is        2.7 secs

     total energy              =     -36.69652543 Ry
     Harris-Foulkes estimate   =     -36.69653612 Ry
     estimated scf accuracy    <       0.00002198 Ry

     iteration #  8     ecut=    90.00 Ry     beta= 0.20
     Davidson diagonalization with overlap
     ethr =  3.34E-09,  avg # of iterations =  3.0

     total cpu time spent up to now is        3.0 secs

     total energy              =     -36.69652727 Ry
     Harris-Foulkes estimate   =     -36.69652726 Ry
     estimated scf accuracy    <       0.00000021 Ry

     iteration #  9     ecut=    90.00 Ry     beta= 0.20
     Davidson diagonalization with overlap
     ethr =  2.59E-09,  avg # of iterations =  1.0

     total cpu time spent up to now is        3.3 secs

     total energy              =     -36.69652719 Ry
     Harris-Foulkes estimate   =     -36.69652727 Ry
     estimated scf accuracy    <       0.00000023 Ry

     iteration # 10     ecut=    90.00 Ry     beta= 0.20
     Davidson diagonalization with overlap
     ethr =  2.59E-09,  avg # of iterations =  1.0

     total cpu time spent up to now is        3.5 secs

     total energy              =     -36.69652720 Ry
     Harris-Foulkes estimate   =     -36.69652720 Ry
     estimated scf accuracy    <       0.00000002 Ry

     iteration # 11     ecut=    90.00 Ry     beta= 0.20
     Davidson diagonalization with overlap
     ethr =  2.79E-10,  avg # of iterations =  2.0

     total cpu time spent up to now is        3.7 secs

     End of self-consistent calculation

          k = 0.0000 0.0000 0.0000 (  1687 PWs)   bands (ev):

    -9.7386   6.7208   6.7208   6.7208

          k =-0.2500 0.2500-0.2500 (  1724 PWs)   bands (ev):

    -8.5142   1.7424   5.6033   5.6033

          k = 0.5000-0.5000 0.5000 (  1694 PWs)   bands (ev):

    -6.0560  -2.7400   4.8793   4.8793

          k = 0.0000 0.5000 0.0000 (  1716 PWs)   bands (ev):

    -8.0956   2.4500   4.1144   4.1144

          k = 0.7500-0.2500 0.7500 (  1719 PWs)   bands (ev):

    -5.5809  -1.6261   2.0659   3.5821

          k = 0.5000 0.0000 0.5000 (  1718 PWs)   bands (ev):

    -6.6093  -0.3196   1.7454   4.7712

          k = 0.0000-1.0000 0.0000 (  1724 PWs)   bands (ev):

    -3.5469  -3.5469   2.6464   2.6464

          k =-0.5000-1.0000 0.0000 (  1708 PWs)   bands (ev):

    -3.2519  -3.2519   1.5228   1.5228

     highest occupied level (ev):     6.7208

!    total energy              =     -36.69652720 Ry
     Harris-Foulkes estimate   =     -36.69652720 Ry
     estimated scf accuracy    <          3.0E-09 Ry

     total all-electron energy =      -152.224722 Ry

     The total energy is the sum of the following terms:

     one-electron contribution =       3.98348587 Ry
     hartree contribution      =       2.47494461 Ry
     xc contribution           =      -8.73451197 Ry
     ewald contribution        =     -22.09968428 Ry
     one-center paw contrib.   =     -12.32076142 Ry

     convergence has been achieved in  11 iterations

     Writing output data file diamond.save/

     init_run     :      0.40s CPU      0.29s WALL (       1 calls)
     electrons    :      7.18s CPU      3.27s WALL (       1 calls)

     Called by init_run:
     wfcinit      :      0.18s CPU      0.07s WALL (       1 calls)
     potinit      :      0.06s CPU      0.06s WALL (       1 calls)
     hinit0       :      0.14s CPU      0.14s WALL (       1 calls)

     Called by electrons:
     c_bands      :      3.74s CPU      1.66s WALL (      11 calls)
     sum_band     :      0.92s CPU      0.40s WALL (      11 calls)
     v_of_rho     :      0.63s CPU      0.26s WALL (      12 calls)
     newd         :      0.34s CPU      0.24s WALL (      12 calls)
     PAW_pot      :      1.49s CPU      0.74s WALL (      12 calls)
     mix_rho      :      0.10s CPU      0.04s WALL (      11 calls)

     Called by c_bands:
     init_us_2    :      0.13s CPU      0.05s WALL (     184 calls)
     cegterg      :      3.52s CPU      1.57s WALL (      88 calls)

     Called by sum_band:
     sum_band:bec :      0.00s CPU      0.00s WALL (      88 calls)
     addusdens    :      0.19s CPU      0.08s WALL (      11 calls)

     Called by *egterg:
     h_psi        :      3.39s CPU      1.51s WALL (     286 calls)
     s_psi        :      0.05s CPU      0.03s WALL (     286 calls)
     g_psi        :      0.02s CPU      0.01s WALL (     190 calls)
     cdiaghg      :      0.04s CPU      0.01s WALL (     278 calls)

     Called by h_psi:
     h_psi:pot    :      3.39s CPU      1.51s WALL (     286 calls)
     h_psi:calbec :      0.57s CPU      0.39s WALL (     286 calls)
     vloc_psi     :      2.77s CPU      1.11s WALL (     286 calls)
     add_vuspsi   :      0.04s CPU      0.02s WALL (     286 calls)

     General routines
     calbec       :      0.63s CPU      0.43s WALL (     374 calls)
     fft          :      0.27s CPU      0.11s WALL (     132 calls)
     ffts         :      0.03s CPU      0.01s WALL (      11 calls)
     fftw         :      2.84s CPU      1.15s WALL (    2574 calls)

     Parallel routines

     PWSCF        :      7.76s CPU      3.74s WALL


   This run was terminated on:  20:22:42  12May2023            

=------------------------------------------------------------------------------=
   JOB DONE.
=------------------------------------------------------------------------------=
