
     Program PWSCF v.6.4.1 starts on 12May2023 at 20:22:27 

     This program is part of the open-source Quantum ESPRESSO suite
     for quantum simulation of materials; please cite
         "P. Giannozzi et al., J. Phys.:Condens. Matter 21 395502 (2009);
         "P. Giannozzi et al., J. Phys.:Condens. Matter 29 465901 (2017);
          URL http://www.quantum-espresso.org", 
     in publications or presentations arising from this work. More details at
     http://www.quantum-espresso.org/quote

     Parallel version (MPI), running on     1 processors

     MPI processes distributed on     1 nodes
     Waiting for input...
     Reading input from standard input

     Current dimensions of program PWSCF are:
     Max number of different atomic species (ntypx) = 10
     Max number of k-points (npk) =  40000
     Max angular momentum in pseudopotentials (lmaxx) =  3
               file C.pbe-n-kjpaw_psl.1.0.0.UPF: wavefunction(s)  2S 2P renormalized

     Subspace diagonalization in iterative solution of the eigenvalue problem:
     a serial algorithm will be used


     G-vector sticks info
     --------------------
     sticks:   dense  smooth     PW     G-vecs:    dense   smooth      PW
     Sum         691     691    211                12051    12051    1989



     bravais-lattice index     =            2
     lattice parameter (alat)  =       7.5000  a.u.
     unit-cell volume          =     105.4688 (a.u.)^3
     number of atoms/cell      =            2
     number of atomic types    =            1
     number of electrons       =         8.00
     number of Kohn-Sham states=            4
     kinetic-energy cutoff     =      90.0000  Ry
     charge density cutoff     =     360.0000  Ry
     convergence threshold     =      1.0E-08
     mixing beta               =       0.2000
     number of iterations used =            8  plain     mixing
     Exchange-correlation      = SLA PW PBX PBC ( 1  4  3  4 0 0)

     celldm(1)=   7.500000  celldm(2)=   0.000000  celldm(3)=   0.000000
     celldm(4)=   0.000000  celldm(5)=   0.000000  celldm(6)=   0.000000

     crystal axes: (cart. coord. in units of alat)
               a(1) = (  -0.500000   0.000000   0.500000 )  
               a(2) = (   0.000000   0.500000   0.500000 )  
               a(3) = (  -0.500000   0.500000   0.000000 )  

     reciprocal axes: (cart. coord. in units 2 pi/alat)
               b(1) = ( -1.000000 -1.000000  1.000000 )  
               b(2) = (  1.000000  1.000000  1.000000 )  
               b(3) = ( -1.000000  1.000000 -1.000000 )  


     PseudoPot. # 1 for C  read from file:
     ../../pseudo/C.pbe-n-kjpaw_psl.1.0.0.UPF
     MD5 check sum: 5f16ad9a65e90284d1d834d4ab3b0f7d
     Pseudo is Projector augmented-wave + core cor, Zval =  4.0
     Generated using "atomic" code by A. Dal Corso v.6.3
     Shape of augmentation charge: PSQ
     Using radial grid of 1073 points,  4 beta functions with: 
                l(1) =   0
                l(2) =   0
                l(3) =   1
                l(4) =   1
     Q(r) pseudized with 0 coefficients 


     atomic species   valence    mass     pseudopotential
        C              4.00    12.00000     C ( 1.00)

     48 Sym. Ops., with inversion, found (36 have fractional translation)



   Cartesian axes

     site n.     atom                  positions (alat units)
         1           C   tau(   1) = (  -0.1250000   0.1250000   0.1250000  )
         2           C   tau(   2) = (  -0.8750000   0.8750000   0.8750000  )

     number of k points=     8
                       cart. coord. in units 2pi/alat
        k(    1) = (   0.0000000   0.0000000   0.0000000), wk =   0.0312500
        k(    2) = (  -0.2500000   0.2500000  -0.2500000), wk =   0.2500000
        k(    3) = (   0.5000000  -0.5000000   0.5000000), wk =   0.1250000
        k(    4) = (   0.0000000   0.5000000   0.0000000), wk =   0.1875000
        k(    5) = (   0.7500000  -0.2500000   0.7500000), wk =   0.7500000
        k(    6) = (   0.5000000   0.0000000   0.5000000), wk =   0.3750000
        k(    7) = (   0.0000000  -1.0000000   0.0000000), wk =   0.0937500
        k(    8) = (  -0.5000000  -1.0000000   0.0000000), wk =   0.1875000

     Dense  grid:    12051 G-vectors     FFT dimensions: (  36,  36,  36)

     Estimated max dynamical RAM per process >      18.22 MB

     Check: negative core charge=   -0.000012

     Initial potential from superposition of free atoms

     starting charge    7.99992, renormalised to    8.00000
     Starting wfcs are    8 randomized atomic wfcs
     Checking if some PAW data can be deallocated... 

     total cpu time spent up to now is        0.5 secs

     Self-consistent Calculation

     iteration #  1     ecut=    90.00 Ry     beta= 0.20
     Davidson diagonalization with overlap
     ethr =  1.00E-04,  avg # of iterations =  3.9

     total cpu time spent up to now is        0.8 secs

     total energy              =     -36.77295099 Ry
     Harris-Foulkes estimate   =     -36.77979918 Ry
     estimated scf accuracy    <       0.05450463 Ry

     iteration #  2     ecut=    90.00 Ry     beta= 0.20
     Davidson diagonalization with overlap
     ethr =  6.81E-04,  avg # of iterations =  1.0

     total cpu time spent up to now is        1.0 secs

     total energy              =     -36.76402960 Ry
     Harris-Foulkes estimate   =     -36.77323695 Ry
     estimated scf accuracy    <       0.03165231 Ry

     iteration #  3     ecut=    90.00 Ry     beta= 0.20
     Davidson diagonalization with overlap
     ethr =  3.96E-04,  avg # of iterations =  1.1

     total cpu time spent up to now is        1.2 secs

     total energy              =     -36.76619309 Ry
     Harris-Foulkes estimate   =     -36.76620519 Ry
     estimated scf accuracy    <       0.00050754 Ry

     iteration #  4     ecut=    90.00 Ry     beta= 0.20
     Davidson diagonalization with overlap
     ethr =  6.34E-06,  avg # of iterations =  2.1

     total cpu time spent up to now is        1.5 secs

     total energy              =     -36.76629947 Ry
     Harris-Foulkes estimate   =     -36.76631335 Ry
     estimated scf accuracy    <       0.00002736 Ry

     iteration #  5     ecut=    90.00 Ry     beta= 0.20
     Davidson diagonalization with overlap
     ethr =  3.42E-07,  avg # of iterations =  2.6

     total cpu time spent up to now is        1.7 secs

     total energy              =     -36.76630727 Ry
     Harris-Foulkes estimate   =     -36.76630723 Ry
     estimated scf accuracy    <       0.00000054 Ry

     iteration #  6     ecut=    90.00 Ry     beta= 0.20
     Davidson diagonalization with overlap
     ethr =  6.71E-09,  avg # of iterations =  3.2

     total cpu time spent up to now is        2.0 secs

     total energy              =     -36.76630821 Ry
     Harris-Foulkes estimate   =     -36.76630757 Ry
     estimated scf accuracy    <       0.00000026 Ry

     iteration #  7     ecut=    90.00 Ry     beta= 0.20
     Davidson diagonalization with overlap
     ethr =  3.27E-09,  avg # of iterations =  2.0

     total cpu time spent up to now is        2.3 secs

     total energy              =     -36.76630792 Ry
     Harris-Foulkes estimate   =     -36.76630832 Ry
     estimated scf accuracy    <       0.00000077 Ry

     iteration #  8     ecut=    90.00 Ry     beta= 0.20
     Davidson diagonalization with overlap
     ethr =  3.27E-09,  avg # of iterations =  2.0

     total cpu time spent up to now is        2.5 secs

     End of self-consistent calculation

          k = 0.0000 0.0000 0.0000 (  1471 PWs)   bands (ev):

    -9.3713   8.2760   8.2760   8.2760

          k =-0.2500 0.2500-0.2500 (  1525 PWs)   bands (ev):

    -8.0231   2.9578   7.0116   7.0116

          k = 0.5000-0.5000 0.5000 (  1502 PWs)   bands (ev):

    -5.2017  -2.0613   6.2072   6.2072

          k = 0.0000 0.5000 0.0000 (  1491 PWs)   bands (ev):

    -7.5670   3.9954   5.3169   5.3169

          k = 0.7500-0.2500 0.7500 (  1527 PWs)   bands (ev):

    -4.7525  -0.5881   3.1007   4.7301

          k = 0.5000 0.0000 0.5000 (  1522 PWs)   bands (ev):

    -5.9070   0.8887   2.6678   6.0770

          k = 0.0000-1.0000 0.0000 (  1524 PWs)   bands (ev):

    -2.5528  -2.5528   3.6792   3.6792

          k =-0.5000-1.0000 0.0000 (  1540 PWs)   bands (ev):

    -2.1605  -2.1605   2.3549   2.3549

     highest occupied level (ev):     8.2760

!    total energy              =     -36.76630800 Ry
     Harris-Foulkes estimate   =     -36.76630800 Ry
     estimated scf accuracy    <          1.5E-09 Ry

     total all-electron energy =      -152.294502 Ry

     The total energy is the sum of the following terms:

     one-electron contribution =       5.10511117 Ry
     hartree contribution      =       2.32097534 Ry
     xc contribution           =      -8.89019101 Ry
     ewald contribution        =     -22.98367166 Ry
     one-center paw contrib.   =     -12.31853185 Ry

     convergence has been achieved in   8 iterations

     Writing output data file diamond.save/

     init_run     :      0.46s CPU      0.36s WALL (       1 calls)
     electrons    :      4.70s CPU      1.97s WALL (       1 calls)

     Called by init_run:
     wfcinit      :      0.24s CPU      0.12s WALL (       1 calls)
     potinit      :      0.05s CPU      0.06s WALL (       1 calls)
     hinit0       :      0.13s CPU      0.13s WALL (       1 calls)

     Called by electrons:
     c_bands      :      2.33s CPU      0.95s WALL (       8 calls)
     sum_band     :      0.57s CPU      0.25s WALL (       8 calls)
     v_of_rho     :      0.39s CPU      0.16s WALL (       9 calls)
     newd         :      0.18s CPU      0.16s WALL (       9 calls)
     PAW_pot      :      1.25s CPU      0.53s WALL (       9 calls)
     mix_rho      :      0.04s CPU      0.02s WALL (       8 calls)

     Called by c_bands:
     init_us_2    :      0.08s CPU      0.03s WALL (     136 calls)
     cegterg      :      2.17s CPU      0.89s WALL (      64 calls)

     Called by sum_band:
     sum_band:bec :      0.00s CPU      0.00s WALL (      64 calls)
     addusdens    :      0.12s CPU      0.05s WALL (       8 calls)

     Called by *egterg:
     h_psi        :      2.18s CPU      0.92s WALL (     216 calls)
     s_psi        :      0.03s CPU      0.02s WALL (     216 calls)
     g_psi        :      0.01s CPU      0.00s WALL (     144 calls)
     cdiaghg      :      0.03s CPU      0.01s WALL (     208 calls)

     Called by h_psi:
     h_psi:pot    :      2.17s CPU      0.91s WALL (     216 calls)
     h_psi:calbec :      0.21s CPU      0.17s WALL (     216 calls)
     vloc_psi     :      1.93s CPU      0.73s WALL (     216 calls)
     add_vuspsi   :      0.03s CPU      0.01s WALL (     216 calls)

     General routines
     calbec       :      0.26s CPU      0.19s WALL (     280 calls)
     fft          :      0.17s CPU      0.08s WALL (      99 calls)
     ffts         :      0.02s CPU      0.01s WALL (       8 calls)
     fftw         :      1.94s CPU      0.75s WALL (    1872 calls)

     Parallel routines

     PWSCF        :      5.34s CPU      2.51s WALL


   This run was terminated on:  20:22:29  12May2023            

=------------------------------------------------------------------------------=
   JOB DONE.
=------------------------------------------------------------------------------=
