
     Program PWSCF v.6.4.1 starts on 12May2023 at 20:20:58 

     This program is part of the open-source Quantum ESPRESSO suite
     for quantum simulation of materials; please cite
         "P. Giannozzi et al., J. Phys.:Condens. Matter 21 395502 (2009);
         "P. Giannozzi et al., J. Phys.:Condens. Matter 29 465901 (2017);
          URL http://www.quantum-espresso.org", 
     in publications or presentations arising from this work. More details at
     http://www.quantum-espresso.org/quote

     Parallel version (MPI), running on     1 processors

     MPI processes distributed on     1 nodes
     Waiting for input...
     Reading input from standard input

     Current dimensions of program PWSCF are:
     Max number of different atomic species (ntypx) = 10
     Max number of k-points (npk) =  40000
     Max angular momentum in pseudopotentials (lmaxx) =  3
               file C.pbe-n-kjpaw_psl.1.0.0.UPF: wavefunction(s)  2S 2P renormalized

     Subspace diagonalization in iterative solution of the eigenvalue problem:
     a serial algorithm will be used


     G-vector sticks info
     --------------------
     sticks:   dense  smooth     PW     G-vecs:    dense   smooth      PW
     Sum         253     253     85                 2685     2685     531



     bravais-lattice index     =            2
     lattice parameter (alat)  =       4.5000  a.u.
     unit-cell volume          =      22.7812 (a.u.)^3
     number of atoms/cell      =            2
     number of atomic types    =            1
     number of electrons       =         8.00
     number of Kohn-Sham states=            4
     kinetic-energy cutoff     =      90.0000  Ry
     charge density cutoff     =     360.0000  Ry
     convergence threshold     =      1.0E-08
     mixing beta               =       0.2000
     number of iterations used =            8  plain     mixing
     Exchange-correlation      = SLA PW PBX PBC ( 1  4  3  4 0 0)

     celldm(1)=   4.500000  celldm(2)=   0.000000  celldm(3)=   0.000000
     celldm(4)=   0.000000  celldm(5)=   0.000000  celldm(6)=   0.000000

     crystal axes: (cart. coord. in units of alat)
               a(1) = (  -0.500000   0.000000   0.500000 )  
               a(2) = (   0.000000   0.500000   0.500000 )  
               a(3) = (  -0.500000   0.500000   0.000000 )  

     reciprocal axes: (cart. coord. in units 2 pi/alat)
               b(1) = ( -1.000000 -1.000000  1.000000 )  
               b(2) = (  1.000000  1.000000  1.000000 )  
               b(3) = ( -1.000000  1.000000 -1.000000 )  


     PseudoPot. # 1 for C  read from file:
     ../../pseudo/C.pbe-n-kjpaw_psl.1.0.0.UPF
     MD5 check sum: 5f16ad9a65e90284d1d834d4ab3b0f7d
     Pseudo is Projector augmented-wave + core cor, Zval =  4.0
     Generated using "atomic" code by A. Dal Corso v.6.3
     Shape of augmentation charge: PSQ
     Using radial grid of 1073 points,  4 beta functions with: 
                l(1) =   0
                l(2) =   0
                l(3) =   1
                l(4) =   1
     Q(r) pseudized with 0 coefficients 


     atomic species   valence    mass     pseudopotential
        C              4.00    12.00000     C ( 1.00)

     48 Sym. Ops., with inversion, found (36 have fractional translation)



   Cartesian axes

     site n.     atom                  positions (alat units)
         1           C   tau(   1) = (  -0.1250000   0.1250000   0.1250000  )
         2           C   tau(   2) = (  -0.8750000   0.8750000   0.8750000  )

     number of k points=     8
                       cart. coord. in units 2pi/alat
        k(    1) = (   0.0000000   0.0000000   0.0000000), wk =   0.0312500
        k(    2) = (  -0.2500000   0.2500000  -0.2500000), wk =   0.2500000
        k(    3) = (   0.5000000  -0.5000000   0.5000000), wk =   0.1250000
        k(    4) = (   0.0000000   0.5000000   0.0000000), wk =   0.1875000
        k(    5) = (   0.7500000  -0.2500000   0.7500000), wk =   0.7500000
        k(    6) = (   0.5000000   0.0000000   0.5000000), wk =   0.3750000
        k(    7) = (   0.0000000  -1.0000000   0.0000000), wk =   0.0937500
        k(    8) = (  -0.5000000  -1.0000000   0.0000000), wk =   0.1875000

     Dense  grid:     2685 G-vectors     FFT dimensions: (  20,  20,  20)

     Estimated max dynamical RAM per process >       4.08 MB

     Check: negative core charge=   -0.000008

     Initial potential from superposition of free atoms

     starting charge    7.99992, renormalised to    8.00000
     Starting wfcs are    8 randomized atomic wfcs
     Checking if some PAW data can be deallocated... 

     total cpu time spent up to now is        0.4 secs

     Self-consistent Calculation

     iteration #  1     ecut=    90.00 Ry     beta= 0.20
     Davidson diagonalization with overlap
     ethr =  1.00E-04,  avg # of iterations =  3.6

     total cpu time spent up to now is        0.5 secs

     total energy              =     -33.88477240 Ry
     Harris-Foulkes estimate   =     -34.05789354 Ry
     estimated scf accuracy    <       0.63212225 Ry

     iteration #  2     ecut=    90.00 Ry     beta= 0.20
     Davidson diagonalization with overlap
     ethr =  7.90E-03,  avg # of iterations =  1.0

     total cpu time spent up to now is        0.6 secs

     total energy              =     -33.65171954 Ry
     Harris-Foulkes estimate   =     -33.88912580 Ry
     estimated scf accuracy    <       0.35838119 Ry

     iteration #  3     ecut=    90.00 Ry     beta= 0.20
     Davidson diagonalization with overlap
     ethr =  4.48E-03,  avg # of iterations =  2.0

     total cpu time spent up to now is        0.7 secs

     total energy              =     -33.69133083 Ry
     Harris-Foulkes estimate   =     -33.69137185 Ry
     estimated scf accuracy    <       0.00030623 Ry

     iteration #  4     ecut=    90.00 Ry     beta= 0.20
     Davidson diagonalization with overlap
     ethr =  3.83E-06,  avg # of iterations =  3.0

     total cpu time spent up to now is        0.8 secs

     total energy              =     -33.69245107 Ry
     Harris-Foulkes estimate   =     -33.69246914 Ry
     estimated scf accuracy    <       0.00016746 Ry

     iteration #  5     ecut=    90.00 Ry     beta= 0.20
     Davidson diagonalization with overlap
     ethr =  2.09E-06,  avg # of iterations =  2.0

     total cpu time spent up to now is        0.9 secs

     total energy              =     -33.69246389 Ry
     Harris-Foulkes estimate   =     -33.69247656 Ry
     estimated scf accuracy    <       0.00005537 Ry

     iteration #  6     ecut=    90.00 Ry     beta= 0.20
     Davidson diagonalization with overlap
     ethr =  6.92E-07,  avg # of iterations =  1.0

     total cpu time spent up to now is        0.9 secs

     total energy              =     -33.69246437 Ry
     Harris-Foulkes estimate   =     -33.69246610 Ry
     estimated scf accuracy    <       0.00000513 Ry

     iteration #  7     ecut=    90.00 Ry     beta= 0.20
     Davidson diagonalization with overlap
     ethr =  6.41E-08,  avg # of iterations =  1.2

     total cpu time spent up to now is        1.0 secs

     total energy              =     -33.69246481 Ry
     Harris-Foulkes estimate   =     -33.69246479 Ry
     estimated scf accuracy    <       0.00000003 Ry

     iteration #  8     ecut=    90.00 Ry     beta= 0.20
     Davidson diagonalization with overlap
     ethr =  3.55E-10,  avg # of iterations =  2.9

     total cpu time spent up to now is        1.1 secs

     total energy              =     -33.69246482 Ry
     Harris-Foulkes estimate   =     -33.69246483 Ry
     estimated scf accuracy    <       0.00000005 Ry

     iteration #  9     ecut=    90.00 Ry     beta= 0.20
     Davidson diagonalization with overlap
     ethr =  3.55E-10,  avg # of iterations =  1.0

     total cpu time spent up to now is        1.2 secs

     total energy              =     -33.69246483 Ry
     Harris-Foulkes estimate   =     -33.69246482 Ry
     estimated scf accuracy    <       0.00000001 Ry

     iteration # 10     ecut=    90.00 Ry     beta= 0.20
     Davidson diagonalization with overlap
     ethr =  1.68E-10,  avg # of iterations =  1.6

     total cpu time spent up to now is        1.3 secs

     End of self-consistent calculation

          k = 0.0000 0.0000 0.0000 (   331 PWs)   bands (ev):

     3.7349  49.7248  49.7248  49.7248

          k =-0.2500 0.2500-0.2500 (   323 PWs)   bands (ev):

     6.8090  33.7872  44.3977  44.3977

          k = 0.5000-0.5000 0.5000 (   332 PWs)   bands (ev):

    13.0600  21.5476  41.8387  41.8387

          k = 0.0000 0.5000 0.0000 (   311 PWs)   bands (ev):

     8.0420  36.8695  36.8695  42.3270

          k = 0.7500-0.2500 0.7500 (   327 PWs)   bands (ev):

    15.0183  25.3216  33.7146  35.0784

          k = 0.5000 0.0000 0.5000 (   327 PWs)   bands (ev):

    11.8988  30.0346  30.8242  40.7773

          k = 0.0000-1.0000 0.0000 (   342 PWs)   bands (ev):

    21.8493  21.8493  31.0729  31.0729

          k =-0.5000-1.0000 0.0000 (   328 PWs)   bands (ev):

    23.0646  23.0646  28.1979  28.1979

     highest occupied level (ev):    49.7248

!    total energy              =     -33.69246483 Ry
     Harris-Foulkes estimate   =     -33.69246483 Ry
     estimated scf accuracy    <          5.1E-12 Ry

     total all-electron energy =      -149.220659 Ry

     The total energy is the sum of the following terms:

     one-electron contribution =      28.31725101 Ry
     hartree contribution      =       0.97862309 Ry
     xc contribution           =     -12.19965601 Ry
     ewald contribution        =     -38.30611943 Ry
     one-center paw contrib.   =     -12.48256349 Ry

     convergence has been achieved in  10 iterations

     Writing output data file diamond.save/

     init_run     :      0.19s CPU      0.18s WALL (       1 calls)
     electrons    :      2.14s CPU      0.91s WALL (       1 calls)

     Called by init_run:
     wfcinit      :      0.03s CPU      0.01s WALL (       1 calls)
     potinit      :      0.04s CPU      0.05s WALL (       1 calls)
     hinit0       :      0.10s CPU      0.10s WALL (       1 calls)

     Called by electrons:
     c_bands      :      0.33s CPU      0.13s WALL (      10 calls)
     sum_band     :      0.10s CPU      0.04s WALL (      10 calls)
     v_of_rho     :      0.05s CPU      0.02s WALL (      11 calls)
     newd         :      0.10s CPU      0.07s WALL (      11 calls)
     PAW_pot      :      1.61s CPU      0.70s WALL (      11 calls)
     mix_rho      :      0.01s CPU      0.00s WALL (      10 calls)

     Called by c_bands:
     init_us_2    :      0.03s CPU      0.01s WALL (     168 calls)
     cegterg      :      0.28s CPU      0.11s WALL (      80 calls)

     Called by sum_band:
     sum_band:bec :      0.00s CPU      0.00s WALL (      80 calls)
     addusdens    :      0.03s CPU      0.02s WALL (      10 calls)

     Called by *egterg:
     h_psi        :      0.19s CPU      0.07s WALL (     243 calls)
     s_psi        :      0.02s CPU      0.01s WALL (     243 calls)
     g_psi        :      0.00s CPU      0.00s WALL (     155 calls)
     cdiaghg      :      0.06s CPU      0.02s WALL (     235 calls)

     Called by h_psi:
     h_psi:pot    :      0.19s CPU      0.07s WALL (     243 calls)
     h_psi:calbec :      0.03s CPU      0.01s WALL (     243 calls)
     vloc_psi     :      0.14s CPU      0.05s WALL (     243 calls)
     add_vuspsi   :      0.01s CPU      0.00s WALL (     243 calls)

     General routines
     calbec       :      0.03s CPU      0.01s WALL (     323 calls)
     fft          :      0.01s CPU      0.00s WALL (     121 calls)
     ffts         :      0.00s CPU      0.00s WALL (      10 calls)
     fftw         :      0.11s CPU      0.04s WALL (    2164 calls)

     Parallel routines

     PWSCF        :      2.54s CPU      1.27s WALL


   This run was terminated on:  20:21: 0  12May2023            

=------------------------------------------------------------------------------=
   JOB DONE.
=------------------------------------------------------------------------------=
